 Entering Link 1 = C:\G09W\l1.exe PID=     16448.
  
 Copyright (c) 1988,1990,1992,1993,1995,1998,2003,2009, Gaussian, Inc.
                  All Rights Reserved.
  
 This is part of the Gaussian(R) 09 program.  It is based on
 the Gaussian(R) 03 system (copyright 2003, Gaussian, Inc.),
 the Gaussian(R) 98 system (copyright 1998, Gaussian, Inc.),
 the Gaussian(R) 94 system (copyright 1995, Gaussian, Inc.),
 the Gaussian 92(TM) system (copyright 1992, Gaussian, Inc.),
 the Gaussian 90(TM) system (copyright 1990, Gaussian, Inc.),
 the Gaussian 88(TM) system (copyright 1988, Gaussian, Inc.),
 the Gaussian 86(TM) system (copyright 1986, Carnegie Mellon
 University), and the Gaussian 82(TM) system (copyright 1983,
 Carnegie Mellon University). Gaussian is a federally registered
 trademark of Gaussian, Inc.
  
 This software contains proprietary and confidential information,
 including trade secrets, belonging to Gaussian, Inc.
  
 This software is provided under written license and may be
 used, copied, transmitted, or stored only in accord with that
 written license.
  
 The following legend is applicable only to US Government
 contracts under FAR:
  
                    RESTRICTED RIGHTS LEGEND
  
 Use, reproduction and disclosure by the US Government is
 subject to restrictions as set forth in subparagraphs (a)
 and (c) of the Commercial Computer Software - Restricted
 Rights clause in FAR 52.227-19.
  
 Gaussian, Inc.
 340 Quinnipiac St., Bldg. 40, Wallingford CT 06492
  
  
 ---------------------------------------------------------------
 Warning -- This program may not be used in any manner that
 competes with the business of Gaussian, Inc. or will provide
 assistance to any competitor of Gaussian, Inc.  The licensee
 of this program is prohibited from giving any competitor of
 Gaussian, Inc. access to this program.  By using this program,
 the user acknowledges that Gaussian, Inc. is engaged in the
 business of creating and licensing software in the field of
 computational chemistry and represents and warrants to the
 licensee that it is not a competitor of Gaussian, Inc. and that
 it will not use this program in any manner prohibited above.
 ---------------------------------------------------------------
  

 Cite this work as:
 Gaussian 09, Revision A.02,
 M. J. Frisch, G. W. Trucks, H. B. Schlegel, G. E. Scuseria, 
 M. A. Robb, J. R. Cheeseman, G. Scalmani, V. Barone, B. Mennucci, 
 G. A. Petersson, H. Nakatsuji, M. Caricato, X. Li, H. P. Hratchian, 
 A. F. Izmaylov, J. Bloino, G. Zheng, J. L. Sonnenberg, M. Hada, 
 M. Ehara, K. Toyota, R. Fukuda, J. Hasegawa, M. Ishida, T. Nakajima, 
 Y. Honda, O. Kitao, H. Nakai, T. Vreven, J. A. Montgomery, Jr., 
 J. E. Peralta, F. Ogliaro, M. Bearpark, J. J. Heyd, E. Brothers, 
 K. N. Kudin, V. N. Staroverov, R. Kobayashi, J. Normand, 
 K. Raghavachari, A. Rendell, J. C. Burant, S. S. Iyengar, J. Tomasi, 
 M. Cossi, N. Rega, J. M. Millam, M. Klene, J. E. Knox, J. B. Cross, 
 V. Bakken, C. Adamo, J. Jaramillo, R. Gomperts, R. E. Stratmann, 
 O. Yazyev, A. J. Austin, R. Cammi, C. Pomelli, J. W. Ochterski, 
 R. L. Martin, K. Morokuma, V. G. Zakrzewski, G. A. Voth, 
 P. Salvador, J. J. Dannenberg, S. Dapprich, A. D. Daniels, 
 O. Farkas, J. B. Foresman, J. V. Ortiz, J. Cioslowski, 
 and D. J. Fox, Gaussian, Inc., Wallingford CT, 2009.
 
 ******************************************
 Gaussian 09:  IA32W-G09RevA.02 11-Jun-2009
                24-Oct-2020 
 ******************************************
 -------------------
 # hf/3-21g opt freq
 -------------------
 1/18=20,19=15,38=1/1,3;
 2/9=110,12=2,17=6,18=5,40=1/2;
 3/5=5,11=9,16=1,25=1,30=1,71=1/1,2,3;
 4//1;
 5/5=2,38=5/2;
 6/7=2,8=2,9=2,10=2,28=1/1;
 7//1,2,3,16;
 1/18=20,19=15/3(2);
 2/9=110/2;
 99//99;
 2/9=110/2;
 3/5=5,11=9,16=1,25=1,30=1,71=1/1,2,3;
 4/5=5,16=3/1;
 5/5=2,38=5/2;
 7//1,2,3,16;
 1/18=20,19=15/3(-5);
 2/9=110/2;
 6/7=2,8=2,9=2,10=2,19=2,28=1/1;
 99/9=1/99;
 -------------
 caffien water
 -------------
 Symbolic Z-matrix:
 Charge =  0 Multiplicity = 1
 C
 C                    1    B1
 C                    2    B2       1    A1
 C                    1    B3       2    A2       3    D1       0
 C                    1    B4       2    A3       3    D2       0
 H                    5    B5       1    A4       2    D3       0
 N                    1    B6       2    A5       3    D4       0
 N                    3    B7       2    A6       1    D5       0
 N                    5    B8       1    A7       2    D6       0
 N                    5    B9       1    A8       9    D7       0
 C                    7    B10      1    A9       9    D8       0
 H                    11   B11      7    A10      1    D9       0
 H                    11   B12      7    A11      1    D10      0
 H                    11   B13      7    A12      1    D11      0
 C                    10   B14      5    A13      1    D12      0
 H                    15   B15      10   A14      5    D13      0
 H                    15   B16      10   A15      5    D14      0
 H                    15   B17      10   A16      5    D15      0
 C                    8    B18      3    A17      2    D16      0
 H                    19   B19      8    A18      3    D17      0
 H                    19   B20      8    A19      3    D18      0
 H                    19   B21      8    A20      3    D19      0
 O                    4    B22      1    A21      9    D20      0
 O                    3    B23      2    A22      1    D21      0
 O                    23   B24      4    A23      1    D22      0
 H                    25   B25      23   A24      4    D23      0
 H                    25   B26      23   A25      4    D24      0
       Variables:
  B1                    1.36191                  
  B2                    1.42365                  
  B3                    2.36776                  
  B4                    2.12303                  
  B5                    1.06558                  
  B6                    1.36751                  
  B7                    1.39225                  
  B8                    1.32602                  
  B9                    1.3422                   
  B10                   1.46601                  
  B11                   1.08                     
  B12                   1.08                     
  B13                   1.07487                  
  B14                   1.45923                  
  B15                   1.07856                  
  B16                   1.07856                  
  B17                   1.07974                  
  B18                   1.47327                  
  B19                   1.07906                  
  B20                   1.07905                  
  B21                   1.07363                  
  B22                   1.22965                  
  B23                   1.23142                  
  B24                   1.97288                  
  B25                   0.94926                  
  B26                   0.94926                  
  A1                  122.05202                  
  A2                   91.89712                  
  A3                   73.7248                   
  A4                  162.44                     
  A5                  122.21307                  
  A6                  112.75945                  
  A7                   38.24361                  
  A8                   74.64431                  
  A9                  119.99641                  
  A10                 109.64291                  
  A11                 109.64216                  
  A12                 108.11788                  
  A13                 127.35196                  
  A14                 110.09735                  
  A15                 110.09746                  
  A16                 108.37047                  
  A17                 116.01597                  
  A18                 109.4876                   
  A19                 109.4858                   
  A20                 108.2441                   
  A21                 151.70733                  
  A22                 126.0183                   
  A23                 109.15419                  
  A24                 125.46646                  
  A25                 117.82331                  
  D1                   -0.00055                  
  D2                  179.99411                  
  D3                  179.99717                  
  D4                    0.00173                  
  D5                   -0.00722                  
  D6                  179.97015                  
  D7                 -179.97457                  
  D8                   -0.01501                  
  D9                  -59.86568                  
  D10                  59.85815                  
  D11                 179.9957                   
  D12                -179.9936                   
  D13                 119.98623                  
  D14                -119.98866                  
  D15                  -0.00114                  
  D16                -179.98527                  
  D17                 -59.6043                   
  D18                  59.5398                   
  D19                 179.96886                  
  D20                  -0.08222                  
  D21                -179.98531                  
  D22                  88.18444                  
  D23                 -82.89452                  
  D24                  72.67407                  
 

 GradGradGradGradGradGradGradGradGradGradGradGradGradGradGradGradGradGrad
 Berny optimization.
 Initialization pass.
                           ----------------------------
                           !    Initial Parameters    !
                           ! (Angstroms and Degrees)  !
 --------------------------                            --------------------------
 ! Name  Definition              Value          Derivative Info.                !
 --------------------------------------------------------------------------------
 ! R1    R(1,2)                  1.3619         estimate D2E/DX2                !
 ! R2    R(1,7)                  1.3675         estimate D2E/DX2                !
 ! R3    R(1,9)                  1.3578         estimate D2E/DX2                !
 ! R4    R(2,3)                  1.4236         estimate D2E/DX2                !
 ! R5    R(2,10)                 1.386          estimate D2E/DX2                !
 ! R6    R(3,8)                  1.3922         estimate D2E/DX2                !
 ! R7    R(3,24)                 1.2314         estimate D2E/DX2                !
 ! R8    R(4,7)                  1.3733         estimate D2E/DX2                !
 ! R9    R(4,8)                  1.3937         estimate D2E/DX2                !
 ! R10   R(4,23)                 1.2296         estimate D2E/DX2                !
 ! R11   R(5,6)                  1.0656         estimate D2E/DX2                !
 ! R12   R(5,9)                  1.326          estimate D2E/DX2                !
 ! R13   R(5,10)                 1.3422         estimate D2E/DX2                !
 ! R14   R(7,11)                 1.466          estimate D2E/DX2                !
 ! R15   R(8,19)                 1.4733         estimate D2E/DX2                !
 ! R16   R(10,15)                1.4592         estimate D2E/DX2                !
 ! R17   R(11,12)                1.08           estimate D2E/DX2                !
 ! R18   R(11,13)                1.08           estimate D2E/DX2                !
 ! R19   R(11,14)                1.0749         estimate D2E/DX2                !
 ! R20   R(15,16)                1.0786         estimate D2E/DX2                !
 ! R21   R(15,17)                1.0786         estimate D2E/DX2                !
 ! R22   R(15,18)                1.0797         estimate D2E/DX2                !
 ! R23   R(19,20)                1.0791         estimate D2E/DX2                !
 ! R24   R(19,21)                1.079          estimate D2E/DX2                !
 ! R25   R(19,22)                1.0736         estimate D2E/DX2                !
 ! R26   R(23,25)                1.9729         estimate D2E/DX2                !
 ! R27   R(23,27)                2.5576         estimate D2E/DX2                !
 ! R28   R(25,26)                0.9493         estimate D2E/DX2                !
 ! R29   R(25,27)                0.9493         estimate D2E/DX2                !
 ! A1    A(2,1,7)              122.2131         estimate D2E/DX2                !
 ! A2    A(2,1,9)              110.9195         estimate D2E/DX2                !
 ! A3    A(7,1,9)              126.8674         estimate D2E/DX2                !
 ! A4    A(1,2,3)              122.052          estimate D2E/DX2                !
 ! A5    A(1,2,10)             105.7358         estimate D2E/DX2                !
 ! A6    A(3,2,10)             132.2122         estimate D2E/DX2                !
 ! A7    A(2,3,8)              112.7595         estimate D2E/DX2                !
 ! A8    A(2,3,24)             126.0183         estimate D2E/DX2                !
 ! A9    A(8,3,24)             121.2222         estimate D2E/DX2                !
 ! A10   A(7,4,8)              117.3729         estimate D2E/DX2                !
 ! A11   A(7,4,23)             121.5332         estimate D2E/DX2                !
 ! A12   A(8,4,23)             121.0939         estimate D2E/DX2                !
 ! A13   A(6,5,9)              124.1964         estimate D2E/DX2                !
 ! A14   A(6,5,10)             122.9157         estimate D2E/DX2                !
 ! A15   A(9,5,10)             112.8879         estimate D2E/DX2                !
 ! A16   A(1,7,4)              119.5099         estimate D2E/DX2                !
 ! A17   A(1,7,11)             119.9964         estimate D2E/DX2                !
 ! A18   A(4,7,11)             120.4937         estimate D2E/DX2                !
 ! A19   A(3,8,4)              126.0927         estimate D2E/DX2                !
 ! A20   A(3,8,19)             116.016          estimate D2E/DX2                !
 ! A21   A(4,8,19)             117.8914         estimate D2E/DX2                !
 ! A22   A(1,9,5)              104.5616         estimate D2E/DX2                !
 ! A23   A(2,10,5)             105.8951         estimate D2E/DX2                !
 ! A24   A(2,10,15)            126.7529         estimate D2E/DX2                !
 ! A25   A(5,10,15)            127.352          estimate D2E/DX2                !
 ! A26   A(7,11,12)            109.6429         estimate D2E/DX2                !
 ! A27   A(7,11,13)            109.6422         estimate D2E/DX2                !
 ! A28   A(7,11,14)            108.1179         estimate D2E/DX2                !
 ! A29   A(12,11,13)           109.0744         estimate D2E/DX2                !
 ! A30   A(12,11,14)           110.1753         estimate D2E/DX2                !
 ! A31   A(13,11,14)           110.1748         estimate D2E/DX2                !
 ! A32   A(10,15,16)           110.0973         estimate D2E/DX2                !
 ! A33   A(10,15,17)           110.0975         estimate D2E/DX2                !
 ! A34   A(10,15,18)           108.3705         estimate D2E/DX2                !
 ! A35   A(16,15,17)           108.8581         estimate D2E/DX2                !
 ! A36   A(16,15,18)           109.704          estimate D2E/DX2                !
 ! A37   A(17,15,18)           109.7041         estimate D2E/DX2                !
 ! A38   A(8,19,20)            109.4876         estimate D2E/DX2                !
 ! A39   A(8,19,21)            109.4858         estimate D2E/DX2                !
 ! A40   A(8,19,22)            108.2441         estimate D2E/DX2                !
 ! A41   A(20,19,21)           108.7556         estimate D2E/DX2                !
 ! A42   A(20,19,22)           110.4253         estimate D2E/DX2                !
 ! A43   A(21,19,22)           110.428          estimate D2E/DX2                !
 ! A44   A(4,23,25)            109.1542         estimate D2E/DX2                !
 ! A45   A(4,23,27)            102.5677         estimate D2E/DX2                !
 ! A46   A(23,25,26)           125.4665         estimate D2E/DX2                !
 ! A47   A(26,25,27)           112.6426         estimate D2E/DX2                !
 ! D1    D(7,1,2,3)              0.0017         estimate D2E/DX2                !
 ! D2    D(7,1,2,10)          -179.9881         estimate D2E/DX2                !
 ! D3    D(9,1,2,3)           -179.9866         estimate D2E/DX2                !
 ! D4    D(9,1,2,10)             0.0236         estimate D2E/DX2                !
 ! D5    D(2,1,7,4)             -0.0045         estimate D2E/DX2                !
 ! D6    D(2,1,7,11)           179.9986         estimate D2E/DX2                !
 ! D7    D(9,1,7,4)            179.9818         estimate D2E/DX2                !
 ! D8    D(9,1,7,11)            -0.015          estimate D2E/DX2                !
 ! D9    D(2,1,9,5)             -0.0307         estimate D2E/DX2                !
 ! D10   D(7,1,9,5)            179.9817         estimate D2E/DX2                !
 ! D11   D(1,2,3,8)             -0.0072         estimate D2E/DX2                !
 ! D12   D(1,2,3,24)          -179.9853         estimate D2E/DX2                !
 ! D13   D(10,2,3,8)           179.9795         estimate D2E/DX2                !
 ! D14   D(10,2,3,24)            0.0015         estimate D2E/DX2                !
 ! D15   D(1,2,10,5)            -0.0068         estimate D2E/DX2                !
 ! D16   D(1,2,10,15)          179.9912         estimate D2E/DX2                !
 ! D17   D(3,2,10,5)          -179.9951         estimate D2E/DX2                !
 ! D18   D(3,2,10,15)            0.0028         estimate D2E/DX2                !
 ! D19   D(2,3,8,4)              0.017          estimate D2E/DX2                !
 ! D20   D(2,3,8,19)          -179.9853         estimate D2E/DX2                !
 ! D21   D(24,3,8,4)           179.9963         estimate D2E/DX2                !
 ! D22   D(24,3,8,19)           -0.006          estimate D2E/DX2                !
 ! D23   D(8,4,7,1)              0.0128         estimate D2E/DX2                !
 ! D24   D(8,4,7,11)          -179.9904         estimate D2E/DX2                !
 ! D25   D(23,4,7,1)           179.9751         estimate D2E/DX2                !
 ! D26   D(23,4,7,11)           -0.0281         estimate D2E/DX2                !
 ! D27   D(7,4,8,3)             -0.0204         estimate D2E/DX2                !
 ! D28   D(7,4,8,19)           179.9819         estimate D2E/DX2                !
 ! D29   D(23,4,8,3)          -179.9829         estimate D2E/DX2                !
 ! D30   D(23,4,8,19)            0.0195         estimate D2E/DX2                !
 ! D31   D(7,4,23,25)           88.1581         estimate D2E/DX2                !
 ! D32   D(7,4,23,27)          106.8836         estimate D2E/DX2                !
 ! D33   D(8,4,23,25)          -91.881          estimate D2E/DX2                !
 ! D34   D(8,4,23,27)          -73.1555         estimate D2E/DX2                !
 ! D35   D(6,5,9,1)           -179.9901         estimate D2E/DX2                !
 ! D36   D(10,5,9,1)             0.0266         estimate D2E/DX2                !
 ! D37   D(6,5,10,2)          -179.9962         estimate D2E/DX2                !
 ! D38   D(6,5,10,15)            0.0058         estimate D2E/DX2                !
 ! D39   D(9,5,10,2)            -0.0127         estimate D2E/DX2                !
 ! D40   D(9,5,10,15)          179.9893         estimate D2E/DX2                !
 ! D41   D(1,7,11,12)          -59.8657         estimate D2E/DX2                !
 ! D42   D(1,7,11,13)           59.8581         estimate D2E/DX2                !
 ! D43   D(1,7,11,14)          179.9957         estimate D2E/DX2                !
 ! D44   D(4,7,11,12)          120.1375         estimate D2E/DX2                !
 ! D45   D(4,7,11,13)         -120.1387         estimate D2E/DX2                !
 ! D46   D(4,7,11,14)           -0.0011         estimate D2E/DX2                !
 ! D47   D(3,8,19,20)          -59.6043         estimate D2E/DX2                !
 ! D48   D(3,8,19,21)           59.5398         estimate D2E/DX2                !
 ! D49   D(3,8,19,22)          179.9689         estimate D2E/DX2                !
 ! D50   D(4,8,19,20)          120.3936         estimate D2E/DX2                !
 ! D51   D(4,8,19,21)         -120.4623         estimate D2E/DX2                !
 ! D52   D(4,8,19,22)           -0.0333         estimate D2E/DX2                !
 ! D53   D(2,10,15,16)         -60.0113         estimate D2E/DX2                !
 ! D54   D(2,10,15,17)          60.0138         estimate D2E/DX2                !
 ! D55   D(2,10,15,18)        -179.9987         estimate D2E/DX2                !
 ! D56   D(5,10,15,16)         119.9862         estimate D2E/DX2                !
 ! D57   D(5,10,15,17)        -119.9887         estimate D2E/DX2                !
 ! D58   D(5,10,15,18)          -0.0011         estimate D2E/DX2                !
 ! D59   D(4,23,25,26)         -82.8945         estimate D2E/DX2                !
 --------------------------------------------------------------------------------
 Trust Radius=3.00D-01 FncErr=1.00D-07 GrdErr=1.00D-07
 Number of steps in this run= 145 maximum allowed number of steps= 162.
 GradGradGradGradGradGradGradGradGradGradGradGradGradGradGradGradGradGrad

                          Input orientation:                          
 ---------------------------------------------------------------------
 Center     Atomic      Atomic             Coordinates (Angstroms)
 Number     Number       Type             X           Y           Z
 ---------------------------------------------------------------------
      1          6           0        0.000000    0.000000    0.000000
      2          6           0        0.000000    0.000000    1.361909
      3          6           0        1.206637    0.000000    2.117423
      4          6           0        2.366458    0.000023   -0.078384
      5          6           0       -2.037952   -0.000209    0.594982
      6          1           0       -3.103264   -0.000303    0.571089
      7          7           0        1.157012   -0.000035   -0.728978
      8          7           0        2.344467   -0.000162    1.315113
      9          7           0       -1.268282    0.000297   -0.484806
     10          7           0       -1.334042   -0.000237    1.737790
     11          6           0        1.100309   -0.000063   -2.193894
     12          1           0        0.575995   -0.879743   -2.536903
     13          1           0        0.575910    0.879557   -2.536920
     14          1           0        2.108193   -0.000012   -2.567413
     15          6           0       -1.857392   -0.000510    3.099945
     16          1           0       -1.517600   -0.877831    3.627345
     17          1           0       -1.517876    0.876769    3.627593
     18          1           0       -2.935985   -0.000673    3.050086
     19          6           0        3.635562   -0.000513    2.024767
     20          1           0        3.703295    0.876830    2.649299
     21          1           0        3.702410   -0.877437    2.649969
     22          1           0        4.421271   -0.001160    1.293096
     23          8           0        3.429320   -0.000461   -0.696731
     24          8           0        1.291813   -0.000255    3.345895
     25          8           0        3.959081    1.861960   -1.074861
     26          1           0        3.642794    2.388422   -1.798662
     27          1           0        4.275409    2.388290   -0.350983
 ---------------------------------------------------------------------
                    Distance matrix (angstroms):
                    1          2          3          4          5
     1  C    0.000000
     2  C    1.361909   0.000000
     3  C    2.437099   1.423648   0.000000
     4  C    2.367756   2.770301   2.483295   0.000000
     5  C    2.123029   2.177482   3.584018   4.455587   0.000000
     6  H    3.155375   3.202443   4.578907   5.508146   1.065579
     7  N    1.367511   2.389662   2.846833   1.373329   3.458420
     8  N    2.688131   2.344934   1.392250   1.393671   4.441192
     9  N    1.357784   2.240289   3.591214   3.657392   1.326021
    10  N    2.190795   1.385985   2.568885   4.122159   1.342200
    11  C    2.454354   3.722152   4.312628   2.465464   4.198394
    12  H    2.746197   4.038125   4.778536   3.166079   4.173129
    13  H    2.746135   4.038088   4.778529   3.166077   4.173137
    14  H    3.322060   4.459153   4.770795   2.502391   5.214524
    15  C    3.613802   2.543752   3.217704   5.286084   2.511462
    16  H    4.028812   2.864594   3.236034   5.439574   3.199408
    17  H    4.028908   2.864611   3.236094   5.439761   3.199422
    18  H    4.233560   3.386731   4.246312   6.156559   2.614192
    19  C    4.161369   3.695497   2.430693   2.456394   5.850902
    20  H    4.637026   4.017536   2.699079   3.161674   6.160466
    21  H    4.636817   4.017068   2.698590   3.162058   6.159892
    22  H    4.606489   4.421807   3.318643   2.470469   6.496840
    23  O    3.499381   3.999779   3.586054   1.229646   5.617792
    24  O    3.586613   2.367485   1.231422   3.588948   4.319128
    25  O    4.505169   5.007901   4.607985   2.645038   6.497728
    26  H    4.712716   5.381794   5.193760   3.208245   6.611049
    27  H    4.909811   5.188164   4.605901   3.069564   6.816034
                    6          7          8          9         10
     6  H    0.000000
     7  N    4.454226   0.000000
     8  N    5.498303   2.363971   0.000000
     9  N    2.117090   2.437555   4.036293   0.000000
    10  N    2.119277   3.505752   3.702713   2.223568   0.000000
    11  C    5.031417   1.466013   3.723044   2.920823   4.624306
    12  H    4.895915   2.092859   4.328878   2.896021   4.763904
    13  H    4.895936   2.092849   4.328956   2.895741   4.763938
    14  H    6.083541   2.069924   3.889708   3.967094   5.512146
    15  C    2.819097   4.873118   4.565221   3.632835   1.459233
    16  H    3.553179   5.186678   4.586097   4.212250   2.091478
    17  H    3.553157   5.186860   4.586312   4.212163   2.091480
    18  H    2.484634   5.570812   5.558174   3.908540   2.070830
    19  C    6.893835   3.704905   1.473274   5.508688   4.977884
    20  H    7.170604   4.320325   2.096564   5.942012   5.193733
    21  H    7.169959   4.320436   2.096536   5.941802   5.193015
    22  H    7.559095   3.839814   2.076921   5.960869   5.772468
    23  O    6.654474   2.272537   2.285700   4.702380   5.349440
    24  O    5.197716   4.077102   2.287391   4.607424   3.079142
    25  O    7.486915   3.382049   3.433141   5.580259   6.276619
    26  H    7.538635   3.609440   4.133591   5.616763   6.555996
    27  H    7.810276   3.946059   3.494155   6.037627   6.444686
                   11         12         13         14         15
    11  C    0.000000
    12  H    1.079998   0.000000
    13  H    1.079997   1.759300   0.000000
    14  H    1.074870   1.767056   1.767049   0.000000
    15  C    6.064052   6.202297   6.202396   6.916994   0.000000
    16  H    6.442883   6.510077   6.743097   7.231318   1.078564
    17  H    6.443092   6.743192   6.510389   7.231543   1.078565
    18  H    6.617476   6.657418   6.657540   7.549835   1.079744
    19  C    4.921850   5.562628   5.562821   4.839521   5.597192
    20  H    5.567854   6.305731   6.056188   5.525150   5.647481
    21  H    5.568098   6.056246   6.306017   5.525619   5.646493
    22  H    4.815380   5.497904   5.498317   4.500428   6.533477
    23  O    2.768716   3.507254   3.507517   2.290158   6.508769
    24  O    5.543098   5.991094   5.991169   5.969395   3.158795
    25  O    3.590535   4.593449   3.814260   3.020006   7.397916
    26  H    3.510740   4.542153   3.496781   2.941189   7.743087
    27  H    4.379705   5.398514   4.554217   3.913230   7.431455
                   16         17         18         19         20
    16  H    0.000000
    17  H    1.754600   0.000000
    18  H    1.764780   1.764781   0.000000
    19  C    5.467452   5.467778   6.651053   0.000000
    20  H    5.594028   5.312032   6.708999   1.079055   0.000000
    21  H    5.310723   5.593244   6.707987   1.079047   1.754267
    22  H    6.441076   6.441592   7.564141   1.073630   1.767950
    23  O    6.628682   6.629031   7.386186   2.729301   3.469960
    24  O    2.956714   2.956836   4.238134   2.690454   2.658903
    25  O    7.720832   7.285653   8.247819   3.630587   3.860736
    26  H    8.169432   7.639493   8.514602   4.508399   4.698184
    27  H    7.749426   7.188596   8.323377   3.429281   3.407862
                   21         22         23         24         25
    21  H    0.000000
    22  H    1.767972   0.000000
    23  O    3.470456   2.223371   0.000000
    24  O    2.657958   3.742659   4.572938   0.000000
    25  O    4.630824   3.048288   1.972876   5.488648   0.000000
    26  H    5.519030   3.984356   2.639428   6.139980   0.949256
    27  H    4.472025   2.904091   2.557644   5.317321   0.949256
                   26         27
    26  H    0.000000
    27  H    1.579866   0.000000
 Stoichiometry    C8H12N4O3
 Framework group  C1[X(C8H12N4O3)]
 Deg. of freedom    75
 Full point group                 C1      NOp   1
 Largest Abelian subgroup         C1      NOp   1
 Largest concise Abelian subgroup C1      NOp   1
                         Standard orientation:                         
 ---------------------------------------------------------------------
 Center     Atomic      Atomic             Coordinates (Angstroms)
 Number     Number       Type             X           Y           Z
 ---------------------------------------------------------------------
      1          6           0        0.633555   -1.066707   -0.109081
      2          6           0        1.252606    0.141702   -0.002686
      3          6           0        0.533842    1.368173   -0.079628
      4          6           0       -1.485227   -0.045612   -0.381834
      5          6           0        2.698003   -1.478026    0.166829
      6          1           0        3.624930   -1.990201    0.284908
      7          7           0       -0.716291   -1.180282   -0.296437
      8          7           0       -0.832434    1.180693   -0.270677
      9          7           0        1.529594   -2.081398   -0.003751
     10          7           0        2.597827   -0.139607    0.176763
     11          6           0       -1.332244   -2.506221   -0.404518
     12          1           0       -0.906991   -3.036774   -1.243606
     13          1           0       -1.146161   -3.067707    0.499086
     14          1           0       -2.389254   -2.373131   -0.547215
     15          6           0        3.677721    0.827825    0.341878
     16          1           0        3.737638    1.467782   -0.524243
     17          1           0        3.499395    1.437080    1.213836
     18          1           0        4.604545    0.286491    0.459357
     19          6           0       -1.646344    2.405404   -0.361065
     20          1           0       -1.541394    2.975364    0.549150
     21          1           0       -1.301758    3.006340   -1.188397
     22          1           0       -2.670480    2.118325   -0.507400
     23          8           0       -2.701846   -0.104409   -0.550383
     24          8           0        1.017294    2.497445    0.006492
     25          8           0       -3.593323   -0.228453    1.205214
     26          1           0       -3.715493   -1.025684    1.705798
     27          1           0       -3.614317    0.550388    1.747481
 ---------------------------------------------------------------------
 Rotational constants (GHZ):      0.9660151      0.5061472      0.3555554
 Standard basis: 3-21G (6D, 7F)
 There are   159 symmetry adapted basis functions of A   symmetry.
 Integral buffers will be    262144 words long.
 Raffenetti 1 integral format.
 Two-electron integral symmetry is turned on.
   159 basis functions,   261 primitive gaussians,   159 cartesian basis functions
    56 alpha electrons       56 beta electrons
       nuclear repulsion energy      1072.4898444181 Hartrees.
 NAtoms=   27 NActive=   27 NUniq=   27 SFac= 7.50D-01 NAtFMM=   80 NAOKFM=F Big=F
 One-electron integrals computed using PRISM.
 NBasis=   159 RedAO= T  NBF=   159
 NBsUse=   159 1.00D-06 NBFU=   159
 Harris functional with IExCor=  205 diagonalized for initial guess.
 ExpMin= 1.83D-01 ExpMax= 3.22D+02 ExpMxC= 3.22D+02 IAcc=1 IRadAn=         1 AccDes= 0.00D+00
 HarFok:  IExCor=  205 AccDes= 0.00D+00 IRadAn=         1 IDoV= 1
 ScaDFX=  1.000000  1.000000  1.000000  1.000000
 FoFCou: FMM=F IPFlag=           0 FMFlag=      100000 FMFlg1=           0
         NFxFlg=           0 DoJE=T BraDBF=F KetDBF=T FulRan=T
         Omega=  0.000000  0.000000  1.000000  0.000000  0.000000 ICntrl=     500 IOpCl=  0
         NMat0=    1 NMatS0=    1 NMatT0=    0 NMatD0=    1 NMtDS0=    0 NMtDT0=    0
         I1Cent=           4 NGrid=           0.
 Petite list used in FoFCou.
 Initial guess orbital symmetries:
       Occupied  (A) (A) (A) (A) (A) (A) (A) (A) (A) (A) (A) (A)
                 (A) (A) (A) (A) (A) (A) (A) (A) (A) (A) (A) (A)
                 (A) (A) (A) (A) (A) (A) (A) (A) (A) (A) (A) (A)
                 (A) (A) (A) (A) (A) (A) (A) (A) (A) (A) (A) (A)
                 (A) (A) (A) (A) (A) (A) (A) (A)
       Virtual   (A) (A) (A) (A) (A) (A) (A) (A) (A) (A) (A) (A)
                 (A) (A) (A) (A) (A) (A) (A) (A) (A) (A) (A) (A)
                 (A) (A) (A) (A) (A) (A) (A) (A) (A) (A) (A) (A)
                 (A) (A) (A) (A) (A) (A) (A) (A) (A) (A) (A) (A)
                 (A) (A) (A) (A) (A) (A) (A) (A) (A) (A) (A) (A)
                 (A) (A) (A) (A) (A) (A) (A) (A) (A) (A) (A) (A)
                 (A) (A) (A) (A) (A) (A) (A) (A) (A) (A) (A) (A)
                 (A) (A) (A) (A) (A) (A) (A) (A) (A) (A) (A) (A)
                 (A) (A) (A) (A) (A) (A) (A)
 The electronic state of the initial guess is 1-A.
 Requested convergence on RMS density matrix=1.00D-08 within 128 cycles.
 Requested convergence on MAX density matrix=1.00D-06.
 Requested convergence on             energy=1.00D-06.
 No special actions if energy rises.
 Integral accuracy reduced to 1.0D-05 until final iterations.
 Initial convergence to 1.0D-05 achieved.  Increase integral accuracy.
 SCF Done:  E(RHF) =  -748.091064504     A.U. after   17 cycles
             Convg  =    0.1721D-08             -V/T =  2.0018

 **********************************************************************

            Population analysis using the SCF density.

 **********************************************************************

 Orbital symmetries:
       Occupied  (A) (A) (A) (A) (A) (A) (A) (A) (A) (A) (A) (A)
                 (A) (A) (A) (A) (A) (A) (A) (A) (A) (A) (A) (A)
                 (A) (A) (A) (A) (A) (A) (A) (A) (A) (A) (A) (A)
                 (A) (A) (A) (A) (A) (A) (A) (A) (A) (A) (A) (A)
                 (A) (A) (A) (A) (A) (A) (A) (A)
       Virtual   (A) (A) (A) (A) (A) (A) (A) (A) (A) (A) (A) (A)
                 (A) (A) (A) (A) (A) (A) (A) (A) (A) (A) (A) (A)
                 (A) (A) (A) (A) (A) (A) (A) (A) (A) (A) (A) (A)
                 (A) (A) (A) (A) (A) (A) (A) (A) (A) (A) (A) (A)
                 (A) (A) (A) (A) (A) (A) (A) (A) (A) (A) (A) (A)
                 (A) (A) (A) (A) (A) (A) (A) (A) (A) (A) (A) (A)
                 (A) (A) (A) (A) (A) (A) (A) (A) (A) (A) (A) (A)
                 (A) (A) (A) (A) (A) (A) (A) (A) (A) (A) (A) (A)
                 (A) (A) (A) (A) (A) (A) (A)
 The electronic state is 1-A.
 Alpha  occ. eigenvalues --  -20.42158 -20.40276 -20.40255 -15.57823 -15.53546
 Alpha  occ. eigenvalues --  -15.53149 -15.48975 -11.32167 -11.31382 -11.27278
 Alpha  occ. eigenvalues --  -11.26531 -11.23011 -11.21120 -11.19657 -11.18875
 Alpha  occ. eigenvalues --   -1.41479  -1.38826  -1.38116  -1.31623  -1.28089
 Alpha  occ. eigenvalues --   -1.23924  -1.20598  -1.06844  -0.99140  -0.97761
 Alpha  occ. eigenvalues --   -0.95225  -0.87736  -0.85896  -0.81267  -0.78570
 Alpha  occ. eigenvalues --   -0.71360  -0.69400  -0.69006  -0.68220  -0.65812
 Alpha  occ. eigenvalues --   -0.65383  -0.61919  -0.61855  -0.61213  -0.60827
 Alpha  occ. eigenvalues --   -0.58532  -0.57528  -0.57420  -0.55766  -0.54536
 Alpha  occ. eigenvalues --   -0.53723  -0.52811  -0.48532  -0.46644  -0.45251
 Alpha  occ. eigenvalues --   -0.43251  -0.42817  -0.40821  -0.38474  -0.35508
 Alpha  occ. eigenvalues --   -0.29607
 Alpha virt. eigenvalues --    0.12229   0.22023   0.22244   0.26309   0.26623
 Alpha virt. eigenvalues --    0.29052   0.31187   0.31355   0.31749   0.32120
 Alpha virt. eigenvalues --    0.33408   0.34783   0.35179   0.36267   0.36765
 Alpha virt. eigenvalues --    0.37203   0.38316   0.40578   0.41141   0.42817
 Alpha virt. eigenvalues --    0.44830   0.47340   0.50984   0.54883   0.56978
 Alpha virt. eigenvalues --    0.59433   0.62002   0.67712   0.71248   0.78016
 Alpha virt. eigenvalues --    0.80315   0.86916   0.87636   0.88816   0.90853
 Alpha virt. eigenvalues --    0.93760   0.94837   0.96182   0.97546   0.98451
 Alpha virt. eigenvalues --    0.99547   1.01076   1.05932   1.06646   1.08002
 Alpha virt. eigenvalues --    1.09012   1.11588   1.15052   1.15462   1.17426
 Alpha virt. eigenvalues --    1.19580   1.24058   1.25347   1.26827   1.27599
 Alpha virt. eigenvalues --    1.29770   1.30668   1.31438   1.32298   1.33494
 Alpha virt. eigenvalues --    1.34338   1.36729   1.37261   1.38837   1.42056
 Alpha virt. eigenvalues --    1.44892   1.47516   1.49415   1.50867   1.54426
 Alpha virt. eigenvalues --    1.56878   1.56998   1.65100   1.65740   1.69662
 Alpha virt. eigenvalues --    1.71542   1.81380   1.87011   1.90187   1.93867
 Alpha virt. eigenvalues --    1.94856   1.97242   1.98873   1.99227   2.00236
 Alpha virt. eigenvalues --    2.04334   2.08231   2.09649   2.14512   2.21257
 Alpha virt. eigenvalues --    2.23134   2.25449   2.31855   2.33276   2.46470
 Alpha virt. eigenvalues --    2.50949   3.13813   3.14943   3.18918   3.24159
 Alpha virt. eigenvalues --    3.49067   3.85352   3.95990
          Condensed to atoms (all electrons):
              1          2          3          4          5          6
     1  C    4.836057   0.282484  -0.030183  -0.071972  -0.209034   0.002937
     2  C    0.282484   5.914385   0.022681   0.005172  -0.141290   0.002573
     3  C   -0.030183   0.022681   4.399557  -0.036961   0.002848   0.000003
     4  C   -0.071972   0.005172  -0.036961   4.111174  -0.000125   0.000001
     5  C   -0.209034  -0.141290   0.002848  -0.000125   4.774586   0.386298
     6  H    0.002937   0.002573   0.000003   0.000001   0.386298   0.390433
     7  N    0.157708  -0.064284  -0.009954   0.149366   0.002007  -0.000021
     8  N    0.002452  -0.140898   0.121768   0.132202  -0.000097   0.000000
     9  N    0.339849  -0.062777   0.006156   0.000148   0.493625  -0.023681
    10  N   -0.031537   0.134364  -0.046653   0.000090   0.282405  -0.040857
    11  C   -0.050969   0.001596  -0.000102  -0.047741   0.000022  -0.000004
    12  H   -0.002470   0.000043  -0.000004   0.001933  -0.000043  -0.000001
    13  H   -0.002416   0.000043  -0.000005   0.001761  -0.000046  -0.000001
    14  H    0.003032  -0.000033  -0.000011  -0.000515   0.000001   0.000000
    15  C    0.001252  -0.036958   0.003789  -0.000003  -0.027241   0.000738
    16  H    0.000111  -0.001887   0.000055   0.000000   0.000321  -0.000050
    17  H    0.000111  -0.001874   0.000042   0.000000   0.000326  -0.000049
    18  H   -0.000107   0.002505   0.000168   0.000000  -0.003977   0.000877
    19  C   -0.000191   0.003560  -0.056338  -0.053880   0.000001   0.000000
    20  H   -0.000005  -0.000030  -0.003077   0.001814   0.000000   0.000000
    21  H   -0.000003  -0.000033  -0.003036   0.001963   0.000000   0.000000
    22  H   -0.000043   0.000060   0.003477  -0.000904   0.000000   0.000000
    23  O   -0.000179   0.000108   0.000001   0.548583   0.000000   0.000000
    24  O    0.002772  -0.113355   0.606260   0.000241  -0.000078   0.000000
    25  O    0.000003  -0.000003   0.000001   0.009508   0.000000   0.000000
    26  H   -0.000004   0.000001  -0.000001  -0.000120   0.000000   0.000000
    27  H    0.000000   0.000003  -0.000005  -0.000261   0.000000   0.000000
              7          8          9         10         11         12
     1  C    0.157708   0.002452   0.339849  -0.031537  -0.050969  -0.002470
     2  C   -0.064284  -0.140898  -0.062777   0.134364   0.001596   0.000043
     3  C   -0.009954   0.121768   0.006156  -0.046653  -0.000102  -0.000004
     4  C    0.149366   0.132202   0.000148   0.000090  -0.047741   0.001933
     5  C    0.002007  -0.000097   0.493625   0.282405   0.000022  -0.000043
     6  H   -0.000021   0.000000  -0.023681  -0.040857  -0.000004  -0.000001
     7  N    7.977581  -0.090625  -0.032297   0.002976   0.190039  -0.038320
     8  N   -0.090625   8.106346   0.000047   0.001174   0.001080  -0.000015
     9  N   -0.032297   0.000047   7.100736  -0.123163   0.001462   0.001242
    10  N    0.002976   0.001174  -0.123163   7.753387  -0.000008   0.000000
    11  C    0.190039   0.001080   0.001462  -0.000008   5.135837   0.379061
    12  H   -0.038320  -0.000015   0.001242   0.000000   0.379061   0.484670
    13  H   -0.038863  -0.000012   0.001216   0.000000   0.378079  -0.034123
    14  H   -0.028348   0.000352   0.000115   0.000000   0.365335  -0.021947
    15  C   -0.000018   0.000070   0.001578   0.162903   0.000000   0.000000
    16  H    0.000000   0.000003  -0.000040  -0.034976   0.000000   0.000000
    17  H    0.000000   0.000003  -0.000040  -0.035115   0.000000   0.000000
    18  H    0.000000   0.000001   0.000027  -0.030928   0.000000   0.000000
    19  C    0.001127   0.184520   0.000001  -0.000013  -0.000042   0.000001
    20  H   -0.000012  -0.037746   0.000000   0.000000   0.000001   0.000000
    21  H   -0.000013  -0.036877   0.000000   0.000000   0.000001   0.000000
    22  H    0.000420  -0.028606   0.000000   0.000000   0.000003   0.000000
    23  O   -0.070734  -0.069565  -0.000003   0.000000  -0.009620   0.000172
    24  O   -0.000006  -0.080905  -0.000004  -0.003415   0.000000   0.000000
    25  O   -0.000344  -0.000319   0.000000   0.000000   0.000144   0.000006
    26  H   -0.000039  -0.000030   0.000000   0.000000   0.000223  -0.000004
    27  H   -0.000067   0.000025   0.000000   0.000000   0.000006   0.000000
             13         14         15         16         17         18
     1  C   -0.002416   0.003032   0.001252   0.000111   0.000111  -0.000107
     2  C    0.000043  -0.000033  -0.036958  -0.001887  -0.001874   0.002505
     3  C   -0.000005  -0.000011   0.003789   0.000055   0.000042   0.000168
     4  C    0.001761  -0.000515  -0.000003   0.000000   0.000000   0.000000
     5  C   -0.000046   0.000001  -0.027241   0.000321   0.000326  -0.003977
     6  H   -0.000001   0.000000   0.000738  -0.000050  -0.000049   0.000877
     7  N   -0.038863  -0.028348  -0.000018   0.000000   0.000000   0.000000
     8  N   -0.000012   0.000352   0.000070   0.000003   0.000003   0.000001
     9  N    0.001216   0.000115   0.001578  -0.000040  -0.000040   0.000027
    10  N    0.000000   0.000000   0.162903  -0.034976  -0.035115  -0.030928
    11  C    0.378079   0.365335   0.000000   0.000000   0.000000   0.000000
    12  H   -0.034123  -0.021947   0.000000   0.000000   0.000000   0.000000
    13  H    0.496114  -0.023078   0.000000   0.000000   0.000000   0.000000
    14  H   -0.023078   0.424272   0.000000   0.000000   0.000000   0.000000
    15  C    0.000000   0.000000   5.092136   0.377729   0.377701   0.371307
    16  H    0.000000   0.000000   0.377729   0.454465  -0.029891  -0.024793
    17  H    0.000000   0.000000   0.377701  -0.029891   0.456435  -0.024926
    18  H    0.000000   0.000000   0.371307  -0.024793  -0.024926   0.492299
    19  C    0.000001   0.000003  -0.000001   0.000000   0.000000   0.000000
    20  H    0.000000   0.000000   0.000000   0.000000   0.000000   0.000000
    21  H    0.000000   0.000000   0.000000   0.000000   0.000000   0.000000
    22  H    0.000000  -0.000004   0.000000   0.000000   0.000000   0.000000
    23  O    0.000239   0.015295   0.000000   0.000000   0.000000   0.000000
    24  O    0.000000   0.000000   0.002912   0.001041   0.001039   0.000064
    25  O   -0.000032   0.000629   0.000000   0.000000   0.000000   0.000000
    26  H    0.000072   0.000001   0.000000   0.000000   0.000000   0.000000
    27  H    0.000005  -0.000015   0.000000   0.000000   0.000000   0.000000
             19         20         21         22         23         24
     1  C   -0.000191  -0.000005  -0.000003  -0.000043  -0.000179   0.002772
     2  C    0.003560  -0.000030  -0.000033   0.000060   0.000108  -0.113355
     3  C   -0.056338  -0.003077  -0.003036   0.003477   0.000001   0.606260
     4  C   -0.053880   0.001814   0.001963  -0.000904   0.548583   0.000241
     5  C    0.000001   0.000000   0.000000   0.000000   0.000000  -0.000078
     6  H    0.000000   0.000000   0.000000   0.000000   0.000000   0.000000
     7  N    0.001127  -0.000012  -0.000013   0.000420  -0.070734  -0.000006
     8  N    0.184520  -0.037746  -0.036877  -0.028606  -0.069565  -0.080905
     9  N    0.000001   0.000000   0.000000   0.000000  -0.000003  -0.000004
    10  N   -0.000013   0.000000   0.000000   0.000000   0.000000  -0.003415
    11  C   -0.000042   0.000001   0.000001   0.000003  -0.009620   0.000000
    12  H    0.000001   0.000000   0.000000   0.000000   0.000172   0.000000
    13  H    0.000001   0.000000   0.000000   0.000000   0.000239   0.000000
    14  H    0.000003   0.000000   0.000000  -0.000004   0.015295   0.000000
    15  C   -0.000001   0.000000   0.000000   0.000000   0.000000   0.002912
    16  H    0.000000   0.000000   0.000000   0.000000   0.000000   0.001041
    17  H    0.000000   0.000000   0.000000   0.000000   0.000000   0.001039
    18  H    0.000000   0.000000   0.000000   0.000000   0.000000   0.000064
    19  C    5.161228   0.377850   0.379610   0.361194  -0.011896   0.004031
    20  H    0.377850   0.495189  -0.033388  -0.023298   0.000258   0.001840
    21  H    0.379610  -0.033388   0.480185  -0.021822   0.000212   0.001852
    22  H    0.361194  -0.023298  -0.021822   0.428094   0.017198   0.000258
    23  O   -0.011896   0.000258   0.000212   0.017198   8.235124  -0.000001
    24  O    0.004031   0.001840   0.001852   0.000258  -0.000001   8.238804
    25  O    0.000011  -0.000016   0.000004   0.000468  -0.090983   0.000000
    26  H    0.000005   0.000002   0.000000  -0.000007   0.005780   0.000000
    27  H    0.000305   0.000063  -0.000003   0.000022   0.005959   0.000000
             25         26         27
     1  C    0.000003  -0.000004   0.000000
     2  C   -0.000003   0.000001   0.000003
     3  C    0.000001  -0.000001  -0.000005
     4  C    0.009508  -0.000120  -0.000261
     5  C    0.000000   0.000000   0.000000
     6  H    0.000000   0.000000   0.000000
     7  N   -0.000344  -0.000039  -0.000067
     8  N   -0.000319  -0.000030   0.000025
     9  N    0.000000   0.000000   0.000000
    10  N    0.000000   0.000000   0.000000
    11  C    0.000144   0.000223   0.000006
    12  H    0.000006  -0.000004   0.000000
    13  H   -0.000032   0.000072   0.000005
    14  H    0.000629   0.000001  -0.000015
    15  C    0.000000   0.000000   0.000000
    16  H    0.000000   0.000000   0.000000
    17  H    0.000000   0.000000   0.000000
    18  H    0.000000   0.000000   0.000000
    19  C    0.000011   0.000005   0.000305
    20  H   -0.000016   0.000002   0.000063
    21  H    0.000004   0.000000  -0.000003
    22  H    0.000468  -0.000007   0.000022
    23  O   -0.090983   0.005780   0.005959
    24  O    0.000000   0.000000   0.000000
    25  O    8.282454   0.247840   0.248456
    26  H    0.247840   0.419806  -0.028473
    27  H    0.248456  -0.028473   0.417278
 Mulliken atomic charges:
              1
     1  C    0.770345
     2  C    0.193844
     3  C    1.019527
     4  C    1.248525
     5  C    0.439491
     6  H    0.280802
     7  N   -1.107280
     8  N   -1.064346
     9  N   -0.704198
    10  N   -0.990638
    11  C   -0.344400
    12  H    0.229797
    13  H    0.221046
    14  H    0.264917
    15  C   -0.327895
    16  H    0.257911
    17  H    0.256238
    18  H    0.217483
    19  C   -0.351088
    20  H    0.220554
    21  H    0.231348
    22  H    0.263491
    23  O   -0.575950
    24  O   -0.663351
    25  O   -0.697826
    26  H    0.354948
    27  H    0.356705
 Sum of Mulliken atomic charges =   0.00000
 Mulliken charges with hydrogens summed into heavy atoms:
              1
     1  C    0.770345
     2  C    0.193844
     3  C    1.019527
     4  C    1.248525
     5  C    0.720293
     7  N   -1.107280
     8  N   -1.064346
     9  N   -0.704198
    10  N   -0.990638
    11  C    0.371360
    15  C    0.403737
    19  C    0.364305
    23  O   -0.575950
    24  O   -0.663351
    25  O    0.013826
 Sum of Mulliken charges with hydrogens summed into heavy atoms =   0.00000
 Electronic spatial extent (au):  <R**2>=           3122.2666
 Charge=              0.0000 electrons
 Dipole moment (field-independent basis, Debye):
    X=              2.7997    Y=             -1.1498    Z=              2.7146  Tot=              4.0657
 Quadrupole moment (field-independent basis, Debye-Ang):
   XX=            -73.3402   YY=            -92.7295   ZZ=            -82.6468
   XY=             -1.7459   XZ=             -7.4958   YZ=             -0.7286
 Traceless Quadrupole moment (field-independent basis, Debye-Ang):
   XX=              9.5653   YY=             -9.8240   ZZ=              0.2587
   XY=             -1.7459   XZ=             -7.4958   YZ=             -0.7286
 Octapole moment (field-independent basis, Debye-Ang**2):
  XXX=             74.6123  YYY=            -10.2613  ZZZ=             18.1886  XYY=            -49.0476
  XXY=             -1.9559  XXZ=             46.4711  XZZ=            -29.5518  YZZ=              4.0286
  YYZ=              2.0244  XYZ=              1.3116
 Hexadecapole moment (field-independent basis, Debye-Ang**3):
 XXXX=          -2127.3131 YYYY=          -1388.2506 ZZZZ=           -176.2123 XXXY=             -2.9315
 XXXZ=           -115.5978 YYYX=              6.1029 YYYZ=             -5.5969 ZZZX=            -67.0035
 ZZZY=             -2.0583 XXYY=           -532.6014 XXZZ=           -363.4467 YYZZ=           -233.3226
 XXYZ=            -13.7222 YYXZ=             -9.7584 ZZXY=             16.0706
 N-N= 1.072489844418D+03 E-N=-3.899741524621D+03  KE= 7.467299348354D+02
 Calling FoFJK, ICntrl=      2127 FMM=F ISym2X=0 I1Cent= 0 IOpClX= 0 NMat=1 NMatS=1 NMatT=0.
 ***** Axes restored to original set *****
 -------------------------------------------------------------------
 Center     Atomic                   Forces (Hartrees/Bohr)
 Number     Number              X              Y              Z
 -------------------------------------------------------------------
      1        6           0.009781407    0.000176533    0.002269106
      2        6           0.001608069    0.000134793   -0.006204820
      3        6           0.002481570   -0.000132102    0.018457576
      4        6           0.048035183   -0.013622553   -0.024395219
      5        6          -0.004427587   -0.000043540   -0.006961981
      6        1           0.001432463   -0.000038119    0.001015729
      7        7          -0.017981602    0.003098493    0.001763761
      8        7          -0.011113170    0.003821794    0.007892807
      9        7          -0.001974834    0.000087690    0.003374377
     10        7           0.002890889    0.000100981   -0.002291647
     11        6           0.000321068   -0.000429021   -0.000977988
     12        1          -0.000690249   -0.000095434   -0.000738125
     13        1          -0.001121690    0.000388653   -0.000680347
     14        1           0.001327775   -0.000481268    0.001924843
     15        6          -0.000363643   -0.000079435    0.003233017
     16        1           0.000813814   -0.000198224    0.000126846
     17        1           0.000807640    0.000213580    0.000155001
     18        1          -0.000353109   -0.000006280    0.000274714
     19        6           0.000381743   -0.000595311   -0.000434806
     20        1          -0.000149819    0.000454778    0.001435700
     21        1           0.000168817   -0.000083812    0.000933084
     22        1          -0.001082621   -0.000615352   -0.002003471
     23        8          -0.053103149   -0.076142573    0.034229666
     24        8          -0.001395181    0.000146295   -0.014703131
     25        8           0.018355262    0.043007947   -0.015128943
     26        1          -0.001490620    0.021254285   -0.011254591
     27        1           0.006841574    0.019677202    0.008688842
 -------------------------------------------------------------------
 Cartesian Forces:  Max     0.076142573 RMS     0.014806580

 GradGradGradGradGradGradGradGradGradGradGradGradGradGradGradGradGradGrad
 Berny optimization.
 Internal  Forces:  Max     0.072623299 RMS     0.008062426
 Search for a local minimum.
 Step number   1 out of a maximum of  145
 All quantities printed in internal units (Hartrees-Bohrs-Radians)
 Mixed Optimization -- RFO/linear search
 Second derivative matrix not updated -- first step.
     Eigenvalues ---    0.00387   0.00723   0.00819   0.00908   0.01414
     Eigenvalues ---    0.01561   0.01592   0.01784   0.01796   0.01998
     Eigenvalues ---    0.02033   0.02179   0.02253   0.02422   0.02531
     Eigenvalues ---    0.02570   0.03831   0.03945   0.07525   0.07558
     Eigenvalues ---    0.07569   0.07621   0.07684   0.07692   0.10522
     Eigenvalues ---    0.14757   0.16000   0.16000   0.16000   0.16000
     Eigenvalues ---    0.16000   0.16000   0.16000   0.16000   0.16000
     Eigenvalues ---    0.16000   0.16000   0.22620   0.23629   0.25000
     Eigenvalues ---    0.25000   0.25000   0.25000   0.25000   0.25000
     Eigenvalues ---    0.25000   0.25000   0.25000   0.35351   0.35995
     Eigenvalues ---    0.35995   0.36025   0.36109   0.36110   0.36168
     Eigenvalues ---    0.36168   0.36222   0.36621   0.36775   0.37061
     Eigenvalues ---    0.37794   0.40155   0.42239   0.45041   0.45987
     Eigenvalues ---    0.46632   0.49078   0.50630   0.51707   0.53155
     Eigenvalues ---    0.55217   0.57850   0.58440   0.90497   0.91234
     Eigenvalues --- 1000.000001000.000001000.000001000.000001000.00000
     Eigenvalues --- 1000.000001000.000001000.000001000.000001000.00000
     Eigenvalues --- 1000.000001000.000001000.000001000.000001000.00000
     Eigenvalues --- 1000.000001000.000001000.000001000.000001000.00000
     Eigenvalues --- 1000.000001000.000001000.000001000.000001000.00000
     Eigenvalues --- 1000.000001000.000001000.000001000.000001000.00000
     Eigenvalues --- 1000.000001000.000001000.000001000.000001000.00000
     Eigenvalues --- 1000.000001000.000001000.000001000.000001000.00000
     Eigenvalues --- 1000.000001000.000001000.000001000.000001000.00000
     Eigenvalues --- 1000.000001000.000001000.000001000.000001000.00000
     Eigenvalues --- 1000.000001000.000001000.000001000.000001000.00000
     Eigenvalues --- 1000.000001000.000001000.000001000.000001000.00000
 RFO step:  Lambda=-4.89464617D-02 EMin= 3.86761027D-03
 Linear search not attempted -- first point.
 Maximum step size (   0.300) exceeded in Quadratic search.
    -- Step size scaled by   0.506
 Iteration  1 RMS(Cart)=  0.03156027 RMS(Int)=  0.00499509
 Iteration  2 RMS(Cart)=  0.00819053 RMS(Int)=  0.00047091
 Iteration  3 RMS(Cart)=  0.00020348 RMS(Int)=  0.00045174
 Iteration  4 RMS(Cart)=  0.00000228 RMS(Int)=  0.00045174
 Iteration  5 RMS(Cart)=  0.00000004 RMS(Int)=  0.00045174
 Variable       Old X    -DE/DX   Delta X   Delta X   Delta X     New X
                                 (Linear)    (Quad)   (Total)
    R1        2.57363  -0.00394   0.00000  -0.00446  -0.00447   2.56916
    R2        2.58422  -0.00669   0.00000  -0.00619  -0.00619   2.57803
    R3        2.56584   0.00287   0.00000   0.00241   0.00241   2.56825
    R4        2.69030  -0.00144   0.00000  -0.00212  -0.00213   2.68817
    R5        2.61913  -0.00190   0.00000  -0.00199  -0.00200   2.61714
    R6        2.63097  -0.00337   0.00000  -0.00306  -0.00306   2.62791
    R7        2.32705  -0.01476   0.00000  -0.00783  -0.00783   2.31922
    R8        2.59521   0.01047   0.00000   0.01004   0.01005   2.60526
    R9        2.63366   0.00869   0.00000   0.00919   0.00920   2.64285
   R10        2.32369  -0.03373   0.00000  -0.01774  -0.01774   2.30595
   R11        2.01365  -0.00145   0.00000  -0.00172  -0.00172   2.01193
   R12        2.50582  -0.00247   0.00000  -0.00160  -0.00159   2.50422
   R13        2.53639   0.00296   0.00000   0.00271   0.00271   2.53910
   R14        2.77036   0.00048   0.00000   0.00059   0.00059   2.77095
   R15        2.78408  -0.00063   0.00000  -0.00079  -0.00079   2.78329
   R16        2.75755   0.00321   0.00000   0.00387   0.00387   2.76142
   R17        2.04090   0.00065   0.00000   0.00080   0.00080   2.04170
   R18        2.04090   0.00108   0.00000   0.00133   0.00133   2.04223
   R19        2.03121   0.00058   0.00000   0.00070   0.00070   2.03191
   R20        2.03819   0.00048   0.00000   0.00059   0.00059   2.03878
   R21        2.03819   0.00050   0.00000   0.00062   0.00062   2.03881
   R22        2.04042   0.00034   0.00000   0.00042   0.00042   2.04084
   R23        2.03912   0.00119   0.00000   0.00147   0.00147   2.04059
   R24        2.03910   0.00062   0.00000   0.00076   0.00076   2.03987
   R25        2.02887   0.00057   0.00000   0.00070   0.00070   2.02956
   R26        3.72820   0.07262   0.00000   0.25941   0.26059   3.98878
   R27        4.83325   0.01765   0.00000   0.12463   0.12317   4.95641
   R28        1.79383   0.02087   0.00000   0.01681   0.01681   1.81065
   R29        1.79383   0.00629   0.00000   0.00577   0.00720   1.80103
    A1        2.13302   0.00209   0.00000   0.00244   0.00244   2.13546
    A2        1.93591  -0.00105   0.00000  -0.00205  -0.00205   1.93386
    A3        2.21425  -0.00104   0.00000  -0.00039  -0.00039   2.21387
    A4        2.13021   0.00355   0.00000   0.00445   0.00444   2.13465
    A5        1.84544   0.00093   0.00000   0.00137   0.00137   1.84681
    A6        2.30754  -0.00448   0.00000  -0.00582  -0.00581   2.30173
    A7        1.96802  -0.00289   0.00000  -0.00565  -0.00566   1.96237
    A8        2.19943   0.00101   0.00000   0.00209   0.00209   2.20152
    A9        2.11573   0.00188   0.00000   0.00356   0.00357   2.11929
   A10        2.04854  -0.00692   0.00000  -0.00985  -0.00987   2.03867
   A11        2.12115   0.00276   0.00000   0.00375   0.00370   2.12486
   A12        2.11349   0.00415   0.00000   0.00611   0.00606   2.11955
   A13        2.16764   0.00250   0.00000   0.00481   0.00481   2.17245
   A14        2.14528   0.00052   0.00000   0.00002   0.00002   2.14531
   A15        1.97027  -0.00302   0.00000  -0.00484  -0.00484   1.96543
   A16        2.08584   0.00040   0.00000   0.00102   0.00104   2.08688
   A17        2.09433   0.00202   0.00000   0.00324   0.00323   2.09756
   A18        2.10301  -0.00242   0.00000  -0.00426  -0.00427   2.09874
   A19        2.20073   0.00376   0.00000   0.00760   0.00761   2.20834
   A20        2.02486  -0.00016   0.00000  -0.00088  -0.00089   2.02397
   A21        2.05759  -0.00360   0.00000  -0.00671  -0.00672   2.05087
   A22        1.82494   0.00186   0.00000   0.00342   0.00342   1.82837
   A23        1.84822   0.00129   0.00000   0.00209   0.00209   1.85031
   A24        2.21226  -0.00470   0.00000  -0.00790  -0.00790   2.20436
   A25        2.22271   0.00341   0.00000   0.00581   0.00581   2.22852
   A26        1.91363   0.00117   0.00000   0.00280   0.00280   1.91643
   A27        1.91362   0.00102   0.00000   0.00269   0.00269   1.91630
   A28        1.88701  -0.00353   0.00000  -0.00871  -0.00871   1.87830
   A29        1.90371  -0.00082   0.00000  -0.00163  -0.00163   1.90207
   A30        1.92292   0.00083   0.00000   0.00155   0.00155   1.92447
   A31        1.92291   0.00134   0.00000   0.00333   0.00334   1.92625
   A32        1.92156  -0.00065   0.00000  -0.00182  -0.00182   1.91974
   A33        1.92156  -0.00061   0.00000  -0.00171  -0.00171   1.91985
   A34        1.89142   0.00084   0.00000   0.00251   0.00251   1.89393
   A35        1.89993  -0.00007   0.00000  -0.00110  -0.00110   1.89883
   A36        1.91470   0.00025   0.00000   0.00107   0.00107   1.91577
   A37        1.91470   0.00024   0.00000   0.00107   0.00107   1.91577
   A38        1.91092   0.00073   0.00000   0.00199   0.00199   1.91291
   A39        1.91089   0.00091   0.00000   0.00205   0.00205   1.91294
   A40        1.88922  -0.00329   0.00000  -0.00802  -0.00802   1.88120
   A41        1.89814  -0.00072   0.00000  -0.00161  -0.00161   1.89653
   A42        1.92729   0.00152   0.00000   0.00398   0.00398   1.93127
   A43        1.92733   0.00086   0.00000   0.00165   0.00165   1.92898
   A44        1.90510   0.01393   0.00000   0.02178   0.01917   1.92427
   A45        1.79014  -0.00822   0.00000  -0.01693  -0.01405   1.77609
   A46        2.18980   0.02252   0.00000   0.05326   0.05208   2.24188
   A47        1.96598   0.00122   0.00000   0.00162   0.00024   1.96622
    D1        0.00003   0.00006   0.00000   0.00034   0.00034   0.00038
    D2       -3.14138   0.00002   0.00000   0.00014   0.00014  -3.14125
    D3       -3.14136   0.00012   0.00000   0.00069   0.00069  -3.14067
    D4        0.00041   0.00007   0.00000   0.00048   0.00048   0.00089
    D5       -0.00008   0.00027   0.00000   0.00173   0.00173   0.00166
    D6        3.14157   0.00013   0.00000   0.00073   0.00073  -3.14089
    D7        3.14128   0.00021   0.00000   0.00133   0.00133  -3.14058
    D8       -0.00026   0.00007   0.00000   0.00033   0.00033   0.00007
    D9       -0.00054  -0.00009   0.00000  -0.00057  -0.00057  -0.00111
   D10        3.14127  -0.00003   0.00000  -0.00021  -0.00021   3.14106
   D11       -0.00013  -0.00005   0.00000  -0.00022  -0.00022  -0.00035
   D12       -3.14134  -0.00019   0.00000  -0.00118  -0.00118   3.14067
   D13        3.14124   0.00001   0.00000   0.00005   0.00005   3.14129
   D14        0.00003  -0.00013   0.00000  -0.00091  -0.00091  -0.00088
   D15       -0.00012  -0.00003   0.00000  -0.00019  -0.00019  -0.00031
   D16        3.14144  -0.00005   0.00000  -0.00037  -0.00037   3.14107
   D17       -3.14151  -0.00008   0.00000  -0.00043  -0.00043   3.14125
   D18        0.00005  -0.00010   0.00000  -0.00061  -0.00061  -0.00056
   D19        0.00030  -0.00031   0.00000  -0.00208  -0.00209  -0.00179
   D20       -3.14134  -0.00002   0.00000   0.00021   0.00022  -3.14112
   D21        3.14153  -0.00018   0.00000  -0.00117  -0.00118   3.14035
   D22       -0.00010   0.00012   0.00000   0.00112   0.00112   0.00102
   D23        0.00022  -0.00059   0.00000  -0.00373  -0.00370  -0.00348
   D24       -3.14142  -0.00045   0.00000  -0.00273  -0.00270   3.13906
   D25        3.14116   0.00181   0.00000   0.01250   0.01247  -3.12955
   D26       -0.00049   0.00195   0.00000   0.01351   0.01348   0.01299
   D27       -0.00036   0.00064   0.00000   0.00412   0.00410   0.00375
   D28        3.14128   0.00034   0.00000   0.00179   0.00177  -3.14014
   D29       -3.14129  -0.00174   0.00000  -0.01204  -0.01202   3.12987
   D30        0.00034  -0.00204   0.00000  -0.01437  -0.01435  -0.01401
   D31        1.53865  -0.00165   0.00000  -0.00649  -0.00564   1.53301
   D32        1.86547  -0.00057   0.00000  -0.00886  -0.00980   1.85567
   D33       -1.60363   0.00083   0.00000   0.01034   0.01128  -1.59235
   D34       -1.27680   0.00191   0.00000   0.00797   0.00712  -1.26969
   D35       -3.14142   0.00006   0.00000   0.00039   0.00039  -3.14103
   D36        0.00046   0.00007   0.00000   0.00045   0.00045   0.00091
   D37       -3.14153  -0.00001   0.00000  -0.00011  -0.00011   3.14155
   D38        0.00010   0.00001   0.00000   0.00007   0.00007   0.00017
   D39       -0.00022  -0.00003   0.00000  -0.00017  -0.00017  -0.00039
   D40        3.14141  -0.00001   0.00000   0.00001   0.00001   3.14142
   D41       -1.04485  -0.00010   0.00000   0.00020   0.00019  -1.04466
   D42        1.04472   0.00023   0.00000   0.00157   0.00157   1.04629
   D43        3.14152   0.00033   0.00000   0.00193   0.00193  -3.13974
   D44        2.09680  -0.00024   0.00000  -0.00082  -0.00082   2.09598
   D45       -2.09682   0.00009   0.00000   0.00056   0.00056  -2.09625
   D46       -0.00002   0.00019   0.00000   0.00092   0.00092   0.00090
   D47       -1.04029  -0.00017   0.00000  -0.00166  -0.00166  -1.04195
   D48        1.03917  -0.00005   0.00000  -0.00119  -0.00118   1.03798
   D49        3.14105  -0.00046   0.00000  -0.00282  -0.00281   3.13824
   D50        2.10126   0.00010   0.00000   0.00044   0.00043   2.10169
   D51       -2.10246   0.00021   0.00000   0.00091   0.00090  -2.10156
   D52       -0.00058  -0.00019   0.00000  -0.00072  -0.00073  -0.00131
   D53       -1.04739   0.00045   0.00000   0.00192   0.00192  -1.04547
   D54        1.04744  -0.00043   0.00000  -0.00168  -0.00167   1.04577
   D55       -3.14157   0.00002   0.00000   0.00016   0.00016  -3.14141
   D56        2.09415   0.00043   0.00000   0.00171   0.00171   2.09586
   D57       -2.09420  -0.00045   0.00000  -0.00189  -0.00189  -2.09608
   D58       -0.00002   0.00000   0.00000  -0.00006  -0.00006  -0.00008
   D59       -1.44678   0.00292   0.00000   0.02704   0.02648  -1.42031
         Item               Value     Threshold  Converged?
 Maximum Force            0.072623     0.000450     NO 
 RMS     Force            0.008062     0.000300     NO 
 Maximum Displacement     0.269337     0.001800     NO 
 RMS     Displacement     0.038646     0.001200     NO 
 Predicted change in Energy=-2.067081D-02
 GradGradGradGradGradGradGradGradGradGradGradGradGradGradGradGradGradGrad

                          Input orientation:                          
 ---------------------------------------------------------------------
 Center     Atomic      Atomic             Coordinates (Angstroms)
 Number     Number       Type             X           Y           Z
 ---------------------------------------------------------------------
      1          6           0       -0.004027   -0.013514   -0.000230
      2          6           0       -0.004372   -0.006428    1.359294
      3          6           0        1.197737   -0.008420    2.119880
      4          6           0        2.364804   -0.028543   -0.080702
      5          6           0       -2.045279    0.000162    0.594569
      6          1           0       -3.109736    0.005421    0.574059
      7          7           0        1.148609   -0.023459   -0.729938
      8          7           0        2.333456   -0.018675    1.317450
      9          7           0       -1.274347   -0.008566   -0.483245
     10          7           0       -1.336961    0.002180    1.736338
     11          6           0        1.093437   -0.029904   -2.195209
     12          1           0        0.564521   -0.907536   -2.537732
     13          1           0        0.575844    0.851602   -2.545865
     14          1           0        2.105240   -0.039257   -2.558956
     15          6           0       -1.848721    0.011250    3.105047
     16          1           0       -1.506170   -0.865193    3.632760
     17          1           0       -1.497466    0.889195    3.624511
     18          1           0       -2.928026    0.016423    3.067592
     19          6           0        3.624217   -0.022031    2.026834
     20          1           0        3.699260    0.859045    2.646602
     21          1           0        3.688093   -0.895093    2.658417
     22          1           0        4.404215   -0.033463    1.288630
     23          8           0        3.419877   -0.024945   -0.693758
     24          8           0        1.279445   -0.001527    3.344418
     25          8           0        4.015127    1.956487   -1.112048
     26          1           0        3.718695    2.530949   -1.819282
     27          1           0        4.246071    2.436385   -0.321672
 ---------------------------------------------------------------------
                    Distance matrix (angstroms):
                    1          2          3          4          5
     1  C    0.000000
     2  C    1.359542   0.000000
     3  C    2.437033   1.422519   0.000000
     4  C    2.370245   2.772557   2.490986   0.000000
     5  C    2.126190   2.179484   3.583825   4.461575   0.000000
     6  H    3.158416   3.203127   4.576470   5.513661   1.064667
     7  N    1.364237   2.386325   2.850281   1.378646   3.457716
     8  N    2.683307   2.338235   1.390632   1.398538   4.438044
     9  N    1.359058   2.237809   3.589911   3.661401   1.325178
    10  N    2.189207   1.384930   2.563574   4.123790   1.343635
    11  C    2.454105   3.720246   4.316403   2.467290   4.199441
    12  H    2.749807   4.040105   4.785679   3.170275   4.176875
    13  H    2.750442   4.040189   4.784931   3.170499   4.178224
    14  H    3.316135   4.450194   4.766133   2.491833   5.212781
    15  C    3.611960   2.539605   3.201851   5.282459   2.518185
    16  H    4.022488   2.856838   3.214651   5.429017   3.204697
    17  H    4.022934   2.857041   3.214615   5.430284   3.204845
    18  H    4.238183   3.386231   4.233284   6.158557   2.625900
    19  C    4.156106   3.689514   2.428302   2.455172   5.847655
    20  H    4.634804   4.015357   2.699545   3.163347   6.160214
    21  H    4.634365   4.013944   2.697792   3.163033   6.158937
    22  H    4.592837   4.409235   3.312567   2.456479   6.486819
    23  O    3.493455   3.992598   3.585350   1.220258   5.615011
    24  O    3.582473   2.364091   1.227280   3.593074   4.314563
    25  O    4.612011   5.110473   4.716344   2.779853   6.593047
    26  H    4.862294   5.513878   5.321712   3.377378   6.742029
    27  H    4.916163   5.182590   4.607666   3.110161   6.808507
                    6          7          8          9         10
     6  H    0.000000
     7  N    4.453622   0.000000
     8  N    5.493774   2.365520   0.000000
     9  N    2.118193   2.435528   4.032226   0.000000
    10  N    2.119819   3.501604   3.694301   2.220492   0.000000
    11  C    5.033564   1.466324   3.725124   2.921931   4.622221
    12  H    4.900705   2.095441   4.333779   2.900087   4.765595
    13  H    4.902392   2.095563   4.332642   2.901292   4.766298
    14  H    6.083893   2.064146   3.883173   3.966249   5.504545
    15  C    2.827736   4.867474   4.548297   3.634025   1.461282
    16  H    3.561606   5.175858   4.562892   4.210587   2.092220
    17  H    3.561703   5.176474   4.563193   4.210632   2.092309
    18  H    2.500169   5.571515   5.545036   3.917106   2.074591
    19  C    6.888936   3.705190   1.472855   5.504236   4.969735
    20  H    7.168440   4.322690   2.098202   5.940156   5.189057
    21  H    7.167004   4.323156   2.097937   5.939847   5.187147
    22  H    7.547952   3.830624   2.071012   5.948632   5.758716
    23  O    6.651626   2.271556   2.285894   4.698970   5.341686
    24  O    5.190360   4.076515   2.284695   4.601402   3.071076
    25  O    7.577156   3.504728   3.554116   5.677619   6.370044
    26  H    7.663801   3.783783   4.273003   5.758871   6.678081
    27  H    7.798706   3.976403   3.517405   6.039777   6.428919
                   11         12         13         14         15
    11  C    0.000000
    12  H    1.080422   0.000000
    13  H    1.080702   1.759194   0.000000
    14  H    1.075242   1.768664   1.769988   0.000000
    15  C    6.062236   6.205551   6.206248   6.907771   0.000000
    16  H    6.435906   6.508804   6.742223   7.215386   1.078877
    17  H    6.436356   6.741905   6.509498   7.216425   1.078893
    18  H    6.623548   6.668677   6.669747   7.549498   1.079966
    19  C    4.922455   5.566069   5.564656   4.830845   5.578235
    20  H    5.569890   6.310682   6.059496   5.517760   5.631076
    21  H    5.571219   6.062741   6.310435   5.518955   5.628255
    22  H    4.806079   5.490746   5.490274   4.482102   6.511573
    23  O    2.768880   3.511732   3.505304   2.281981   6.495410
    24  O    5.542822   5.994302   5.993189   5.960972   3.137337
    25  O    3.695302   4.705516   3.886550   3.118366   7.480144
    26  H    3.686634   4.721034   3.636708   3.123510   7.848186
    27  H    4.419482   5.444863   4.574837   3.964518   7.400688
                   16         17         18         19         20
    16  H    0.000000
    17  H    1.754429   0.000000
    18  H    1.765881   1.765896   0.000000
    19  C    5.441580   5.441925   6.634497   0.000000
    20  H    5.571535   5.288022   6.693889   1.079833   0.000000
    21  H    5.284941   5.568397   6.691137   1.079451   1.754213
    22  H    6.412438   6.413851   7.545127   1.073998   1.771333
    23  O    6.609895   6.607826   7.378708   2.728257   3.466626
    24  O    2.930650   2.929688   4.216605   2.689685   2.661398
    25  O    7.807675   7.345937   8.333103   3.730941   3.928307
    26  H    8.279961   7.716125   8.624574   4.617277   4.768622
    27  H    7.721802   7.138234   8.295239   3.456298   3.405533
                   21         22         23         24         25
    21  H    0.000000
    22  H    1.769619   0.000000
    23  O    3.473641   2.213336   0.000000
    24  O    2.659068   3.740518   4.570434   0.000000
    25  O    4.738656   3.142378   2.110772   5.583714   0.000000
    26  H    5.638128   4.087207   2.808681   6.247174   0.958154
    27  H    4.504555   2.952666   2.622821   5.308908   0.953064
                   26         27
    26  H    0.000000
    27  H    1.590567   0.000000
 Stoichiometry    C8H12N4O3
 Framework group  C1[X(C8H12N4O3)]
 Deg. of freedom    75
 Full point group                 C1      NOp   1
 Largest Abelian subgroup         C1      NOp   1
 Largest concise Abelian subgroup C1      NOp   1
                         Standard orientation:                         
 ---------------------------------------------------------------------
 Center     Atomic      Atomic             Coordinates (Angstroms)
 Number     Number       Type             X           Y           Z
 ---------------------------------------------------------------------
      1          6           0        0.635822   -1.068424   -0.115073
      2          6           0        1.256285    0.135829   -0.000372
      3          6           0        0.548238    1.366827   -0.083276
      4          6           0       -1.479419   -0.041692   -0.414479
      5          6           0        2.698526   -1.487635    0.185251
      6          1           0        3.623347   -1.999193    0.313825
      7          7           0       -0.708560   -1.180612   -0.318043
      8          7           0       -0.814467    1.182373   -0.290324
      9          7           0        1.530184   -2.085155    0.000745
     10          7           0        2.597780   -0.147814    0.194481
     11          6           0       -1.328667   -2.504294   -0.433964
     12          1           0       -0.897098   -3.038933   -1.267764
     13          1           0       -1.158322   -3.068852    0.471670
     14          1           0       -2.382230   -2.357521   -0.590834
     15          6           0        3.671347    0.827538    0.371926
     16          1           0        3.734928    1.467767   -0.494122
     17          1           0        3.476620    1.436607    1.240907
     18          1           0        4.601479    0.294088    0.500817
     19          6           0       -1.623581    2.409113   -0.389043
     20          1           0       -1.530318    2.978993    0.523413
     21          1           0       -1.268251    3.012168   -1.210797
     22          1           0       -2.644339    2.116727   -0.550401
     23          8           0       -2.686716   -0.095958   -0.583349
     24          8           0        1.034986    2.489512    0.010911
     25          8           0       -3.679497   -0.222195    1.275094
     26          1           0       -3.823110   -0.995304    1.822575
     27          1           0       -3.588758    0.577469    1.785619
 ---------------------------------------------------------------------
 Rotational constants (GHZ):      0.9553324      0.4994983      0.3536894
 Standard basis: 3-21G (6D, 7F)
 There are   159 symmetry adapted basis functions of A   symmetry.
 Integral buffers will be    262144 words long.
 Raffenetti 1 integral format.
 Two-electron integral symmetry is turned on.
   159 basis functions,   261 primitive gaussians,   159 cartesian basis functions
    56 alpha electrons       56 beta electrons
       nuclear repulsion energy      1069.0473035034 Hartrees.
 NAtoms=   27 NActive=   27 NUniq=   27 SFac= 7.50D-01 NAtFMM=   80 NAOKFM=F Big=F
 One-electron integrals computed using PRISM.
 NBasis=   159 RedAO= T  NBF=   159
 NBsUse=   159 1.00D-06 NBFU=   159
 Initial guess read from the read-write file.
 B after Tr=     0.000000    0.000000    0.000000
         Rot=    1.000000    0.000000    0.000000    0.000000 Ang=   0.00 deg.
 Initial guess orbital symmetries:
       Occupied  (A) (A) (A) (A) (A) (A) (A) (A) (A) (A) (A) (A)
                 (A) (A) (A) (A) (A) (A) (A) (A) (A) (A) (A) (A)
                 (A) (A) (A) (A) (A) (A) (A) (A) (A) (A) (A) (A)
                 (A) (A) (A) (A) (A) (A) (A) (A) (A) (A) (A) (A)
                 (A) (A) (A) (A) (A) (A) (A) (A)
       Virtual   (A) (A) (A) (A) (A) (A) (A) (A) (A) (A) (A) (A)
                 (A) (A) (A) (A) (A) (A) (A) (A) (A) (A) (A) (A)
                 (A) (A) (A) (A) (A) (A) (A) (A) (A) (A) (A) (A)
                 (A) (A) (A) (A) (A) (A) (A) (A) (A) (A) (A) (A)
                 (A) (A) (A) (A) (A) (A) (A) (A) (A) (A) (A) (A)
                 (A) (A) (A) (A) (A) (A) (A) (A) (A) (A) (A) (A)
                 (A) (A) (A) (A) (A) (A) (A) (A) (A) (A) (A) (A)
                 (A) (A) (A) (A) (A) (A) (A) (A) (A) (A) (A) (A)
                 (A) (A) (A) (A) (A) (A) (A)
 Harris functional with IExCor=  205 diagonalized for initial guess.
 ExpMin= 1.83D-01 ExpMax= 3.22D+02 ExpMxC= 3.22D+02 IAcc=1 IRadAn=         1 AccDes= 0.00D+00
[...]
 000138,0.01154974,-0.22409680,-0.14475112,-0.01573784,0.23596896,0.000
 62928,-0.00008252,-0.00021258,-0.00012026,-0.00003575,0.00001756,0.001
 54333,-0.00002007,-0.00192075,-0.00145632,-0.00290357,0.00206158,0.000
 01191,-0.00002378,0.00002318,-0.00001184,-0.00001803,-0.00000187,-0.00
 052883,0.00052711,-0.00113884,-0.00733663,-0.01153505,-0.01931499,-0.0
 0018120,0.00004726,-0.00000931,-0.00022225,0.00008428,0.00004707,-0.00
 024430,0.00007696,0.00026188,0.00001240,-0.00000143,-0.00002852,-0.000
 00976,-0.00000284,-0.00011614,-0.00001227,-0.00004623,0.00000406,0.000
 03790,0.00000411,-0.00005375,-0.00001074,-0.00000284,0.00001205,0.0000
 4389,-0.00000550,-0.00001051,-0.00002399,0.00000081,0.00000775,0.01235
 796,-0.14328206,-0.18690153,-0.00490996,0.16007949,0.20648894,0.001093
 20,0.00037055,-0.00049998,0.00026045,-0.00100846,0.00024965,0.00108265
 ,0.00278995,-0.00604204,-0.00612101,0.00105798,0.00396016,0.00003965,0
 .00009813,-0.00024269,-0.00001310,0.00002670,0.00000746,-0.00048098,-0
 .00097498,-0.00134660,-0.01456921,0.03070183,-0.02722035,-0.00037622,-
 0.00003158,0.00009378,-0.00011432,-0.00016005,0.00020764,-0.00023543,-
 0.00014821,0.00010845,0.00000030,0.00001189,-0.00007987,-0.00000037,0.
 00000164,-0.00007597,-0.00000134,-0.00002078,0.00003169,0.00000980,0.0
 0001879,-0.00009174,-0.00001383,-0.00000477,0.00001727,-0.00004374,0.0
 0000212,0.00001994,-0.00000558,-0.00000939,0.00002006,-0.05877595,0.00
 942938,-0.00228324,0.00073036,0.00321588,-0.00001255,0.06835839,-0.000
 29222,-0.00007557,0.00026218,0.00004445,-0.00035617,-0.00061923,-0.000
 05057,-0.00065541,0.00298458,-0.00094720,-0.00047373,-0.00100048,-0.00
 004160,0.00001151,-0.00013628,0.00000483,-0.00000129,0.00000497,0.0004
 8877,-0.00019553,-0.00001363,0.00109514,0.00960657,-0.00140208,-0.0000
 4756,0.00004092,0.00001211,0.00020555,0.00004245,0.00006586,0.00000782
 ,-0.00002543,-0.00003146,0.00000028,0.00000500,0.00000130,-0.00000357,
 0.00000052,0.00000803,-0.00000981,-0.00000435,-0.00001461,-0.00000298,
 -0.00000952,0.00003060,0.00000522,0.00000299,-0.00000021,0.00001132,-0
 .00001269,-0.00000845,-0.00000926,0.00000090,-0.00000868,0.01797747,-0
 .28978042,0.12044158,0.00062203,-0.02604434,0.01425756,-0.01683239,0.3
 0889792,0.00053326,0.00020351,-0.00010752,-0.00012112,-0.00004116,-0.0
 0013377,0.00147475,0.00057115,-0.00103316,-0.00204479,0.00195796,0.002
 45126,-0.00000121,0.00002107,0.00000187,-0.00001345,0.00001577,0.00000
 373,-0.00035205,-0.00029982,-0.00128805,-0.00888852,0.01688987,-0.0165
 2114,-0.00018162,-0.00007019,-0.00002333,-0.00016349,-0.00011544,0.000
 03365,-0.00018037,-0.00008938,0.00024615,-0.00001090,-0.00001595,-0.00
 011139,-0.00000889,-0.00000844,-0.00007604,-0.00002566,-0.00002373,0.0
 0002441,0.00003730,0.00001315,-0.00004523,-0.00002267,-0.00000574,0.00
 000660,0.00004625,0.00001199,-0.00000959,-0.00001295,-0.00000172,0.000
 01049,-0.00726752,0.11815098,-0.12185630,0.00255544,-0.02393518,0.0139
 0437,0.01769291,-0.13361479,0.13402962,-0.00051606,-0.00016501,0.00083
 339,-0.00148867,-0.00024923,0.00094883,-0.00218961,0.00066642,-0.00619
 411,-0.00909512,-0.00144813,0.00437250,-0.00021781,-0.00000867,-0.0000
 5872,-0.00000804,0.00000693,-0.00004642,0.00170573,0.00010360,0.000168
 03,-0.03490152,-0.00460664,0.01732331,0.00004136,0.00002592,-0.0001207
 4,0.00010529,0.00005790,-0.00044630,0.00007797,-0.00001579,-0.00023525
 ,-0.00002612,0.00001461,0.00000912,0.00001921,0.00000742,0.00004065,0.
 00000518,0.00003526,-0.00008937,0.00005847,0.00000988,-0.00004880,-0.0
 0001067,-0.00000080,-0.00000253,0.00002367,0.00000352,-0.00001006,-0.0
 0001044,-0.00000028,-0.00000207,-0.23450926,-0.03007219,0.14244440,0.0
 0178544,0.00068194,0.00019677,0.00596733,-0.00017922,-0.00301195,0.264
 88466,0.00002210,0.00014221,-0.00003161,0.00000400,0.00007571,-0.00004
 149,0.00016049,-0.00016630,0.00014730,0.00002720,0.00293604,0.00045506
 ,0.00000046,-0.00000401,-0.00000648,-0.00000029,-0.00001391,0.00000037
 ,-0.00015500,-0.00026656,-0.00006963,0.00049676,-0.00230090,-0.0005886
 2,-0.00001636,0.00000543,0.00001187,-0.00000960,0.00005129,0.00002807,
 0.00001373,0.00003779,0.00004299,-0.00001166,-0.00002079,-0.00002040,0
 .00000874,-0.00000075,-0.00000382,0.00001116,0.00002664,-0.00000132,0.
 00000187,0.00000774,-0.00000313,0.00000042,-0.00000051,0.00000394,0.00
 000165,-0.00000521,-0.00000095,-0.00000287,0.00000057,-0.00000234,-0.0
 3228381,-0.07052279,0.02534056,0.02515052,0.00657890,-0.01826146,-0.02
 852366,-0.00183914,0.02137834,0.03476430,0.06670847,-0.00056699,-0.000
 14347,0.00088838,-0.00095981,-0.00019776,0.00099868,-0.00269307,0.0004
 1852,-0.00491210,-0.00697102,-0.00041540,0.00208022,-0.00012702,-0.000
 01528,0.00002765,0.00000597,0.00000531,-0.00004712,0.00235545,0.000056
 63,0.00037369,-0.02415464,-0.00372478,0.01333464,0.00014630,0.00004153
 ,-0.00016434,0.00007101,0.00006270,-0.00044270,0.00003387,0.00002111,-
 0.00035534,-0.00003120,0.00000897,0.00003945,0.00001325,0.00000067,0.0
 0004426,-0.00002610,0.00002752,-0.00004042,0.00001980,0.00000283,-0.00
 000541,0.00000094,0.00000271,-0.00000598,0.00001145,0.00000138,-0.0000
 1006,0.00000066,-0.00000074,-0.00000758,0.16040829,0.02671203,-0.18516
 490,0.01767330,0.00553499,-0.01334753,0.01145517,0.00002140,-0.0090484
 1,-0.15888508,-0.02940084,0.20314995,0.00961477,0.00205237,-0.01135477
 ,0.00292513,0.00008337,0.00075910,0.00549834,0.00148939,-0.00903758,-0
 .54754822,-0.06195725,0.20707745,-0.00034562,-0.00040233,0.00343118,-0
 .00033382,-0.00006220,0.00028962,-0.11005397,-0.00812730,0.00172182,-0
 .01656035,-0.00905519,0.05158868,-0.00253325,-0.00046719,0.00107168,-0
 .00800983,-0.00072657,0.00119323,0.00056722,-0.00121832,0.01210861,0.0
 0039185,-0.00046909,-0.00265094,-0.00005309,-0.00034280,-0.00042110,-0
 .00339257,-0.00009548,-0.00172729,0.00082975,0.00032994,-0.00210094,-0
 .00029826,-0.00014443,0.00033880,0.00021644,0.00003386,-0.00014051,-0.
 00030977,0.00000633,0.00035625,-0.01288091,-0.00029833,-0.00567615,0.0
 0266761,0.00007945,-0.00012716,0.00253462,0.00034744,-0.00001577,0.006
 50962,0.00048516,0.00082361,0.66701830,0.00039573,0.00586738,0.0010101
 3,-0.00036746,-0.00128047,-0.00072202,0.00387042,0.00620783,-0.0002604
 5,-0.05963066,-0.11284847,0.03135751,-0.00013956,-0.00076275,0.0002220
 3,-0.00002107,-0.00014790,-0.00000465,-0.00775415,0.02635498,-0.000251
 98,-0.01417843,0.02293109,0.01659849,-0.00016846,0.00095490,-0.0000099
 7,-0.00062150,0.00014217,-0.00007210,0.00025550,-0.00451171,0.00197895
 ,0.00091592,0.00064446,-0.00030199,0.00013029,0.00031297,0.00005160,-0
 .00076735,-0.00086689,-0.00101684,0.00012844,0.00003263,-0.00022166,-0
 .00001765,-0.00000559,0.00002664,0.00010930,-0.00004053,-0.00005994,-0
 .00007244,0.00001593,0.00003280,-0.00150874,-0.00066148,-0.00062548,-0
 .00075774,-0.00019719,0.00085953,0.00100366,0.00007086,-0.00049423,0.0
 0023016,-0.00233523,0.00068493,0.07842174,0.06827637,0.00046521,0.0022
 8352,-0.00995700,0.00543460,-0.00026653,0.00474476,-0.02547535,-0.0014
 5667,0.00093308,0.20701885,0.03200955,-0.21389839,0.00138812,0.0001312
 3,-0.00113089,0.00000234,-0.00001847,0.00010318,-0.02064548,-0.0034533
 7,0.03158818,0.07568173,0.01761934,-0.06613289,-0.00229223,-0.00033330
 ,0.00168894,-0.00023450,-0.00029348,0.00192100,-0.00036535,0.00415190,
 -0.00455399,0.00106213,0.00003837,0.00174311,-0.00118717,-0.00114375,0
 .00151183,-0.00066149,-0.00195572,0.00138579,-0.00029234,-0.00003377,0
 .00010450,0.00009325,0.00003284,0.00003525,-0.00050945,-0.00007677,0.0
 0025038,0.00009148,-0.00002307,0.00002758,0.00320686,0.00023277,0.0001
 4776,0.00067131,0.00000487,-0.00117886,0.00085925,0.00040079,-0.001299
 78,0.00276692,0.00086037,-0.00758592,-0.25243568,-0.05720918,0.2761579
 5,-0.01334859,-0.00240255,0.00671284,0.00756706,0.00493763,-0.05029203
 ,-0.11634035,0.00396823,-0.03844806,-0.01352333,0.00065990,-0.01660614
 ,0.00094976,0.00041715,-0.00251997,0.00009317,-0.00003089,0.00024361,0
 .01056174,0.00049366,0.00229289,0.00068646,-0.01163304,0.07401848,-0.0
 0144237,0.00061021,-0.00352635,0.00702042,0.00015073,0.00378533,0.0006
 5864,0.00016361,0.00012867,-0.00010581,-0.00005527,0.00001671,-0.00006
 139,-0.00013895,0.00040878,-0.00016088,-0.00000922,-0.00021855,-0.0022
 7250,-0.00082219,0.00413448,-0.00114487,-0.00004949,-0.00099758,-0.003
 23103,0.00046901,-0.00391962,-0.00108984,0.00012381,-0.00092793,-0.001
 41794,0.00015137,0.00334315,0.00034447,0.00224649,0.00040934,0.0007078
 6,-0.00241357,0.00002619,0.00164015,-0.00016496,0.00138197,0.00036348,
 -0.00102329,0.00736919,0.12323246,-0.00070632,0.00565109,-0.00152341,0
 .00156717,0.02774870,0.00882271,0.00239056,-0.11203047,0.07788542,-0.0
 0136852,0.00570081,-0.00248230,0.00045731,-0.00043507,0.00106082,0.000
 03821,0.00002582,-0.00000112,-0.00031944,-0.00011202,0.00149164,-0.007
 84705,0.02266564,0.01900614,0.00119806,-0.00240245,-0.00099141,-0.0000
 5676,-0.00141743,-0.00067237,0.00007145,-0.00031163,-0.00048056,-0.000
 00696,0.00006275,0.00009959,-0.00002458,-0.00003238,0.00009079,0.00005
 766,0.00001950,0.00003947,-0.00040912,0.00137082,0.00127410,0.00036513
 ,0.00000126,0.00012026,0.00059406,-0.00252463,-0.00090144,-0.00054410,
 0.00007451,-0.00052968,0.00197225,-0.00648353,0.00009155,0.00012011,0.
 00069992,0.00036031,-0.00097169,0.00079425,-0.00047578,0.00005771,0.00
 083586,0.00016320,-0.00077519,-0.00114846,0.00127299,0.00405197,0.0612
 0744,-0.00531906,-0.00264444,0.02078799,-0.02436772,0.01062127,-0.0678
 3253,-0.02674226,0.07886881,-0.71844694,-0.00065614,-0.00111597,0.0143
 6210,-0.00280658,0.00101854,-0.00985249,-0.00024949,-0.00005532,0.0001
 5992,0.00829401,0.00269758,-0.00978556,0.04514233,0.01658891,-0.075276
 60,-0.00826985,-0.00129999,0.00290122,0.00514673,-0.00049217,0.0057836
 2,0.00016133,-0.00072638,0.00334306,-0.00008271,-0.00006980,-0.0009713
 1,-0.00008068,0.00007447,-0.00035444,-0.00034773,-0.00026375,-0.000247
 04,0.00090920,0.00102723,-0.00580449,0.00007916,0.00003898,0.00108802,
 -0.00485750,-0.00097541,0.00196966,-0.00001481,-0.00029381,0.00095811,
 -0.01150316,-0.00104111,-0.00500636,0.00297103,0.00196019,0.00134429,0
 .00315460,-0.00160935,0.00077353,0.00011949,0.00005916,0.00042053,0.00
 604948,0.00149400,-0.00615734,0.01352225,-0.10364123,0.84544684,0.0026
 3576,0.00010928,-0.00086152,0.00058652,-0.00000928,0.00078212,-0.00066
 183,0.00014827,-0.00160782,-0.00206986,0.00066964,-0.00350287,0.000499
 38,0.00007852,-0.00042729,-0.00003397,-0.00000569,0.00003032,-0.001306
 47,-0.00139884,0.00322964,0.00052401,0.00001203,0.00184497,-0.00116131
 ,-0.00018150,0.00045234,-0.00071070,-0.00018588,0.00114109,-0.00126174
 ,0.00000496,-0.00206827,-0.00087416,-0.00115551,0.00034753,-0.00077295
 ,-0.00052430,0.00039041,-0.00128201,-0.00133888,-0.00080371,0.00019606
 ,0.00008077,-0.00046140,-0.00006466,-0.00003302,0.00006138,0.00003644,
 0.00000221,-0.00002326,-0.00007184,0.00000685,0.00006874,-0.00081618,-
 0.00005413,-0.00020231,0.00004103,-0.00001113,0.00014536,0.00008838,0.
 00001557,0.00010281,-0.00017127,-0.00010374,-0.00003469,0.00365308,-0.
 00305774,0.00414460,0.00025776,-0.00013451,0.00128910,0.17590317,0.002
 02361,-0.00003638,-0.00066942,0.00025885,0.00003684,0.00038190,0.00063
 284,0.00005233,-0.00133124,0.00394543,-0.00045097,-0.00299571,0.000265
 25,0.00000648,-0.00019565,-0.00003652,-0.00001958,0.00002934,-0.002595
 95,-0.00020880,0.00157529,-0.00119172,-0.00020177,0.00261365,-0.000945
 39,-0.00002397,0.00026777,-0.00063460,-0.00009481,0.00071511,-0.002235
 24,0.00177004,-0.00038231,0.00017144,-0.00006536,0.00002270,-0.0009843
 6,-0.00063707,0.00048606,0.00157797,-0.00432360,-0.00118120,0.00016560
 ,0.00003682,-0.00035810,-0.00004685,-0.00002291,0.00004912,0.00005884,
 -0.00000388,-0.00003150,-0.00006812,0.00000966,0.00005593,-0.00063865,
 -0.00008773,-0.00034143,0.00001732,0.00001219,0.00017677,0.00008124,0.
 00001393,0.00007998,-0.00013740,-0.00011774,-0.00018181,-0.00501282,-0
 .00009576,0.00866219,-0.00015486,-0.00009162,0.00117734,-0.16836490,0.
 34668324,-0.00074613,-0.00020941,0.00047498,0.00010166,0.00000079,0.00
 022906,-0.00184958,-0.00049125,0.00078578,-0.01067457,-0.00051653,0.00
 274122,0.00005534,0.00000364,-0.00012405,0.00002800,0.00000370,-0.0000
 2554,0.00264408,-0.00018638,0.00192293,0.00224078,0.00045223,-0.002874
 13,0.00039051,0.00005102,0.00005013,0.00041755,0.00005563,-0.00002860,
 0.00048085,0.00110017,0.00045334,0.00033128,0.00037792,0.00007892,0.00
 022745,0.00019324,0.00003709,0.00038800,-0.00147659,-0.00496628,-0.000
 10241,-0.00003808,0.00017879,0.00003156,0.00002209,-0.00002197,-0.0000
 7147,-0.00001438,0.00003511,0.00002669,-0.00000838,-0.00002625,0.00033
 891,-0.00001027,0.00035863,-0.00004826,-0.00002860,-0.00001976,-0.0000
 0342,0.00006905,-0.00008910,0.00014663,-0.00013182,0.00019591,0.010311
 68,0.00916617,-0.00908337,0.00051327,0.00019266,-0.00072642,-0.1846557
 6,-0.03899311,0.64319789,-0.00053115,-0.00002580,0.00016762,-0.0001336
 3,0.00000172,-0.00016461,0.00013114,0.00000981,0.00034368,0.00036870,0
 .00015042,0.00080585,-0.00009494,-0.00001088,0.00009557,0.00000518,0.0
 0000349,-0.00000196,0.00038215,0.00005853,-0.00083986,-0.00007368,-0.0
 0000304,-0.00045598,0.00022598,0.00001381,-0.00010154,0.00013995,0.000
 03148,-0.00023370,0.00001749,-0.00058021,0.00015585,-0.00030896,-0.000
 35435,0.00001184,0.00009436,0.00001368,-0.00011109,-0.00132989,0.00171
 921,0.00195111,-0.00004002,-0.00000961,0.00009476,0.00001196,0.0000049
 0,-0.00001215,-0.00000652,0.00000175,0.00000515,0.00001677,-0.00000153
 ,-0.00001320,0.00019718,0.00002637,0.00005375,-0.00000730,0.00000089,-
 0.00004203,-0.00002199,-0.00000734,-0.00001955,0.00004154,0.00003269,0
 .00001428,-0.00030089,-0.00027467,-0.00081623,-0.00006063,0.00001500,-
 0.00028054,-0.14504523,0.14584344,0.18378284,0.14675676,-0.00050975,-0
 .00004955,0.00018618,-0.00008447,0.00000472,-0.00009323,-0.00009468,-0
 .00001355,0.00035570,-0.00023528,-0.00029044,0.00086799,-0.00007799,-0
 .00001029,0.00006947,0.00000758,0.00000387,-0.00000745,0.00043077,0.00
 012303,-0.00041839,0.00008717,0.00013356,-0.00042331,0.00024496,0.0000
 2277,-0.00006943,0.00014940,0.00002926,-0.00018846,0.00008237,-0.00010
 397,0.00018404,-0.00013232,-0.00006524,-0.00005231,0.00013319,0.000028
 37,-0.00012476,-0.00020701,0.00026764,0.00057487,-0.00004631,-0.000012
 90,0.00009843,0.00001239,0.00000803,-0.00001216,-0.00001578,-0.0000008
 2,0.00000890,0.00001569,-0.00000376,-0.00001374,0.00011438,0.00000080,
 0.00005945,0.00000226,-0.00000716,-0.00002539,-0.00001343,0.00000373,-
 0.00000844,0.00003177,0.00002294,0.00004170,-0.00002261,-0.00122225,-0
 .00036974,0.00002476,0.00002309,-0.00027588,0.16498616,-0.18674393,-0.
 19180912,-0.15187670,0.17562806,0.00022178,0.00000619,-0.00008480,-0.0
 0003470,0.00000395,-0.00003426,0.00033089,0.00000531,-0.00016358,0.001
 02413,0.00016537,-0.00041417,0.00000823,-0.00000215,-0.00000111,-0.000
 00631,-0.00000292,0.00000716,-0.00051029,0.00003560,-0.00015779,-0.000
 35763,-0.00013165,0.00036141,-0.00012925,-0.00000255,0.00000444,-0.000
 07291,-0.00000574,0.00003959,-0.00004181,-0.00000803,-0.00008563,0.000
 06046,0.00000931,0.00003129,-0.00012035,-0.00003933,0.00007657,0.00060
 422,0.00056755,0.00047796,0.00002444,0.00000461,-0.00004192,-0.0000056
 4,-0.00000463,0.00000554,0.00001594,0.00000126,-0.00000718,-0.00000781
 ,0.00000281,0.00000659,0.00001800,0.00000909,-0.00005653,-0.00000671,0
 .00000821,0.00001419,-0.00000013,-0.00000652,0.00000018,0.00001216,-0.
 00000500,-0.00006343,-0.00089470,0.00161755,0.00011431,-0.00011190,-0.
 00001508,0.00013373,0.14935151,-0.13092797,-0.24676432,-0.18073686,0.1
 6824447,0.27665656,-0.00205716,-0.00015170,0.00100718,-0.00036182,0.00
 000685,-0.00031479,-0.00077745,-0.00042675,0.00144142,-0.00883311,-0.0
 0328262,0.00759897,-0.00022225,-0.00004670,0.00011068,0.00003782,0.000
 00409,-0.00003068,0.00231342,0.00067728,0.00014562,0.00127159,0.000281
 60,-0.00360915,0.00086178,0.00013540,-0.00022242,0.00072110,0.00013815
 ,-0.00062260,-0.00019105,-0.00060142,0.00060652,0.00038544,0.00046976,
 -0.00010868,0.00049808,0.00036166,-0.00018149,-0.00523643,-0.00135503,
 -0.00298174,-0.00016711,-0.00006313,0.00036659,0.00005534,0.00002974,-
 0.00004938,-0.00006001,-0.00000796,0.00003454,0.00005728,-0.00000722,-
 0.00005400,0.00100375,0.00002279,0.00034990,-0.00007706,-0.00000418,-0
 .00013803,-0.00009992,0.00001137,-0.00012644,0.00027898,0.00009069,0.0
 0003429,-0.00016966,0.00489975,-0.00534056,0.00011610,0.00020763,-0.00
 126047,-0.02811740,0.02800555,-0.00430549,-0.00043433,-0.01300650,0.03
 136523,0.03920406,-0.00131892,-0.00002676,0.00078646,-0.00009242,-0.00
 004897,-0.00002994,-0.00172319,-0.00009910,0.00106856,-0.01027466,0.00
 045574,0.00337050,-0.00002201,0.00002709,-0.00003412,0.00003397,0.0000
 1630,-0.00002323,0.00366834,-0.00034261,0.00073812,0.00293591,0.000400
 84,-0.00392287,0.00060889,-0.00000347,-0.00008852,0.00057322,0.0000402
 0,-0.00027740,0.00016221,-0.00009141,-0.00088105,-0.00037541,-0.000294
 57,0.00011027,0.00035619,0.00015613,-0.00006093,-0.00082883,0.00148085
 ,-0.00062497,-0.00012733,-0.00001933,0.00025523,0.00003477,0.00001617,
 -0.00003531,-0.00006883,0.00000240,0.00003675,0.00005386,-0.00000820,-
 0.00003856,0.00079579,0.00009204,0.00049456,-0.00001769,-0.00002020,-0
 .00022766,-0.00011034,-0.00001798,-0.00009378,0.00018602,0.00016424,0.
 00027196,0.00584805,-0.00568685,-0.00106692,0.00042976,0.00010823,-0.0
 0112188,0.01044479,-0.15539567,0.22222559,0.00521695,0.01222399,-0.039
 52972,-0.01638909,0.14687089,0.00083108,0.00035395,-0.00055505,-0.0002
 0036,-0.00000748,-0.00042636,0.00296538,0.00073089,-0.00115033,0.01821
 967,0.00176944,-0.00574227,-0.00020307,-0.00003253,0.00031330,-0.00003
 671,-0.00000586,0.00002544,-0.00549187,0.00025113,-0.00332334,-0.00342
 472,-0.00083740,0.00477150,-0.00032091,-0.00004447,-0.00015407,-0.0006
 3170,-0.00004874,-0.00013599,0.00027714,-0.00081705,0.00322248,0.00010
 458,0.00001124,-0.00045484,0.00019501,0.00011800,-0.00034672,-0.004291
 43,-0.00073964,0.00088583,0.00012395,0.00003972,-0.00021532,-0.0000397
 0,-0.00002446,0.00002706,0.00009746,0.00001703,-0.00004987,-0.00003592
 ,0.00000873,0.00003019,-0.00063154,-0.00001376,-0.00062507,0.00008259,
 0.00003598,0.00006802,0.00002056,-0.00009424,0.00015695,-0.00023077,0.
 00024089,-0.00035212,-0.01053862,-0.00384986,-0.00147915,-0.00073904,-
 0.00025729,0.00098890,0.03126697,0.16129629,-0.38598999,-0.00365302,0.
 02320061,-0.03005481,-0.02371501,-0.18130113,0.42056565||0.00000324,-0
 .00000135,-0.00000011,0.00000631,0.00000381,-0.00000020,-0.00000754,-0
 .00000274,0.00000746,0.00000789,-0.00000071,0.00000377,-0.00000126,-0.
 00000060,-0.00000038,0.00000024,-0.00000078,-0.00000022,-0.00000357,0.
 ,0.00000311,0.00000377,0.00000384,-0.00000526,-0.00000092,0.00000159,0
 .00000054,-0.00000098,-0.00000547,0.,0.00000069,-0.00000177,-0.0000038
 4,-0.00000201,0.00000021,0.00000157,-0.00000080,0.00000109,-0.00000167
 ,-0.00000097,0.00000084,0.00000032,-0.00000017,0.00000042,-0.00000350,
 -0.00000018,0.00000086,-0.00000122,0.00000125,0.00000165,0.00000146,0.
 00000013,0.00000100,0.00000165,-0.00000150,-0.00000013,-0.00000005,-0.
 00000023,0.00000026,-0.00000012,0.00000048,0.00000002,0.00000010,0.000
 00046,-0.00000054,-0.00000034,-0.00000615,-0.00000109,0.00000072,0.000
 00103,-0.00000038,-0.00000562,0.00000007,-0.00000046,0.00000136,0.0000
 0169,-0.00000009,-0.00000375,-0.00000097,0.00000049,0.00000422|||@


 GROWING OLD ISN'T SO BAD -- WHEN YOU CONSIDER THE ALTERNATIVE.

                     -- MAURICE CHEVALIER
 Job cpu time:  0 days  0 hours  5 minutes  8.0 seconds.
 File lengths (MBytes):  RWF=    106 Int=      0 D2E=      0 Chk=      3 Scr=      1
 Normal termination of Gaussian 09 at Sat Oct 24 22:49:26 2020.
