 Entering Link 1 = C:\G09W\l1.exe PID=     15476.
  
 Copyright (c) 1988,1990,1992,1993,1995,1998,2003,2009, Gaussian, Inc.
                  All Rights Reserved.
  
 This is part of the Gaussian(R) 09 program.  It is based on
 the Gaussian(R) 03 system (copyright 2003, Gaussian, Inc.),
 the Gaussian(R) 98 system (copyright 1998, Gaussian, Inc.),
 the Gaussian(R) 94 system (copyright 1995, Gaussian, Inc.),
 the Gaussian 92(TM) system (copyright 1992, Gaussian, Inc.),
 the Gaussian 90(TM) system (copyright 1990, Gaussian, Inc.),
 the Gaussian 88(TM) system (copyright 1988, Gaussian, Inc.),
 the Gaussian 86(TM) system (copyright 1986, Carnegie Mellon
 University), and the Gaussian 82(TM) system (copyright 1983,
 Carnegie Mellon University). Gaussian is a federally registered
 trademark of Gaussian, Inc.
  
 This software contains proprietary and confidential information,
 including trade secrets, belonging to Gaussian, Inc.
  
 This software is provided under written license and may be
 used, copied, transmitted, or stored only in accord with that
 written license.
  
 The following legend is applicable only to US Government
 contracts under FAR:
  
                    RESTRICTED RIGHTS LEGEND
  
 Use, reproduction and disclosure by the US Government is
 subject to restrictions as set forth in subparagraphs (a)
 and (c) of the Commercial Computer Software - Restricted
 Rights clause in FAR 52.227-19.
  
 Gaussian, Inc.
 340 Quinnipiac St., Bldg. 40, Wallingford CT 06492
  
  
 ---------------------------------------------------------------
 Warning -- This program may not be used in any manner that
 competes with the business of Gaussian, Inc. or will provide
 assistance to any competitor of Gaussian, Inc.  The licensee
 of this program is prohibited from giving any competitor of
 Gaussian, Inc. access to this program.  By using this program,
 the user acknowledges that Gaussian, Inc. is engaged in the
 business of creating and licensing software in the field of
 computational chemistry and represents and warrants to the
 licensee that it is not a competitor of Gaussian, Inc. and that
 it will not use this program in any manner prohibited above.
 ---------------------------------------------------------------
  

 Cite this work as:
 Gaussian 09, Revision A.02,
 M. J. Frisch, G. W. Trucks, H. B. Schlegel, G. E. Scuseria, 
 M. A. Robb, J. R. Cheeseman, G. Scalmani, V. Barone, B. Mennucci, 
 G. A. Petersson, H. Nakatsuji, M. Caricato, X. Li, H. P. Hratchian, 
 A. F. Izmaylov, J. Bloino, G. Zheng, J. L. Sonnenberg, M. Hada, 
 M. Ehara, K. Toyota, R. Fukuda, J. Hasegawa, M. Ishida, T. Nakajima, 
 Y. Honda, O. Kitao, H. Nakai, T. Vreven, J. A. Montgomery, Jr., 
 J. E. Peralta, F. Ogliaro, M. Bearpark, J. J. Heyd, E. Brothers, 
 K. N. Kudin, V. N. Staroverov, R. Kobayashi, J. Normand, 
 K. Raghavachari, A. Rendell, J. C. Burant, S. S. Iyengar, J. Tomasi, 
 M. Cossi, N. Rega, J. M. Millam, M. Klene, J. E. Knox, J. B. Cross, 
 V. Bakken, C. Adamo, J. Jaramillo, R. Gomperts, R. E. Stratmann, 
 O. Yazyev, A. J. Austin, R. Cammi, C. Pomelli, J. W. Ochterski, 
 R. L. Martin, K. Morokuma, V. G. Zakrzewski, G. A. Voth, 
 P. Salvador, J. J. Dannenberg, S. Dapprich, A. D. Daniels, 
 O. Farkas, J. B. Foresman, J. V. Ortiz, J. Cioslowski, 
 and D. J. Fox, Gaussian, Inc., Wallingford CT, 2009.
 
 ******************************************
 Gaussian 09:  IA32W-G09RevA.02 11-Jun-2009
                23-Oct-2020 
 ******************************************
 --------------------
 # hf/6-31+g opt freq
 --------------------
 1/18=20,19=15,38=1/1,3;
 2/9=110,12=2,17=6,18=5,40=1/2;
 3/5=1,6=6,7=10,11=9,16=1,25=1,30=1,71=1/1,2,3;
 4//1;
 5/5=2,38=5/2;
 6/7=2,8=2,9=2,10=2,28=1/1;
 7//1,2,3,16;
 1/18=20,19=15/3(2);
 2/9=110/2;
 99//99;
 2/9=110/2;
 3/5=1,6=6,7=10,11=9,16=1,25=1,30=1,71=1/1,2,3;
 4/5=5,16=3/1;
 5/5=2,38=5/2;
 7//1,2,3,16;
 1/18=20,19=15/3(-5);
 2/9=110/2;
 6/7=2,8=2,9=2,10=2,19=2,28=1/1;
 99/9=1/99;
 ---------
 caffein 1
 ---------
 Symbolic Z-matrix:
 Charge =  0 Multiplicity = 1
 C
 C                    1    B1
 C                    2    B2       1    A1
 C                    1    B3       2    A2       3    D1       0
 C                    1    B4       2    A3       3    D2       0
 H                    5    B5       1    A4       2    D3       0
 N                    1    B6       2    A5       3    D4       0
 N                    4    B7       1    A6       7    D5       0
 N                    5    B8       1    A7       7    D6       0
 N                    5    B9       1    A8       7    D7       0
 C                    7    B10      1    A9       2    D8       0
 H                    11   B11      7    A10      1    D9       0
 H                    11   B12      7    A11      1    D10      0
 H                    11   B13      7    A12      1    D11      0
 C                    10   B14      5    A13      1    D12      0
 H                    15   B15      10   A14      5    D13      0
 H                    15   B16      10   A15      5    D14      0
 H                    15   B17      10   A16      5    D15      0
 C                    8    B18      4    A17      1    D16      0
 H                    19   B19      8    A18      4    D17      0
 H                    19   B20      8    A19      4    D18      0
 H                    19   B21      8    A20      4    D19      0
 O                    4    B22      1    A21      7    D20      0
 O                    3    B23      2    A22      1    D21      0
       Variables:
  B1                    1.44578                  
  B2                    1.38033                  
  B3                    2.39309                  
  B4                    2.32058                  
  B5                    1.0896                   
  B6                    1.38028                  
  B7                    1.38996                  
  B8                    1.40717                  
  B9                    1.40768                  
  B10                   1.47                     
  B11                   1.07                     
  B12                   1.07                     
  B13                   1.07                     
  B14                   1.47                     
  B15                   1.07                     
  B16                   1.07                     
  B17                   1.07                     
  B18                   1.47                     
  B19                   1.07                     
  B20                   1.07                     
  B21                   1.07                     
  B22                   1.43                     
  B23                   1.43                     
  A1                  120.40934                  
  A2                   89.32939                  
  A3                   71.85656                  
  A4                  161.86187                  
  A5                  120.40362                  
  A6                   90.67065                  
  A7                   36.63964                  
  A8                   72.93316                  
  A9                  121.27449                  
  A10                 109.4712                   
  A11                 109.4712                   
  A12                 109.47123                  
  A13                 127.08222                  
  A14                 109.4712                   
  A15                 109.4712                   
  A16                 109.47123                  
  A17                 119.7501                   
  A18                 109.4712                   
  A19                 109.4712                   
  A20                 109.47123                  
  A21                 149.57676                  
  A22                 121.27139                  
  D1                   -0.00591                  
  D2                  179.99163                  
  D3                 -179.99596                  
  D4                   -0.01213                  
  D5                  179.99444                  
  D6                    0.01709                  
  D7                 -179.98214                  
  D8                 -179.98789                  
  D9                  -60.00239                  
  D10                  59.99762                  
  D11                 179.99761                  
  D12                 179.98939                  
  D13                 120.00274                  
  D14                -119.99725                  
  D15                   0.00274                  
  D16                 179.99799                  
  D17                 119.96412                  
  D18                -120.03587                  
  D19                  -0.03587                  
  D20                   0.00395                  
  D21                -179.99103                  
 
     9 tetrahedral angles replaced.

 GradGradGradGradGradGradGradGradGradGradGradGradGradGradGradGradGradGrad
 Berny optimization.
 Initialization pass.
                           ----------------------------
                           !    Initial Parameters    !
                           ! (Angstroms and Degrees)  !
 --------------------------                            --------------------------
 ! Name  Definition              Value          Derivative Info.                !
 --------------------------------------------------------------------------------
 ! R1    R(1,2)                  1.4458         estimate D2E/DX2                !
 ! R2    R(1,7)                  1.3803         estimate D2E/DX2                !
 ! R3    R(1,9)                  1.4577         estimate D2E/DX2                !
 ! R4    R(2,3)                  1.3803         estimate D2E/DX2                !
 ! R5    R(2,10)                 1.4575         estimate D2E/DX2                !
 ! R6    R(3,8)                  1.4049         estimate D2E/DX2                !
 ! R7    R(3,24)                 1.43           estimate D2E/DX2                !
 ! R8    R(4,7)                  1.4049         estimate D2E/DX2                !
 ! R9    R(4,8)                  1.39           estimate D2E/DX2                !
 ! R10   R(4,23)                 1.43           estimate D2E/DX2                !
 ! R11   R(5,6)                  1.0896         estimate D2E/DX2                !
 ! R12   R(5,9)                  1.4072         estimate D2E/DX2                !
 ! R13   R(5,10)                 1.4077         estimate D2E/DX2                !
 ! R14   R(7,11)                 1.47           estimate D2E/DX2                !
 ! R15   R(8,19)                 1.47           estimate D2E/DX2                !
 ! R16   R(10,15)                1.47           estimate D2E/DX2                !
 ! R17   R(11,12)                1.07           estimate D2E/DX2                !
 ! R18   R(11,13)                1.07           estimate D2E/DX2                !
 ! R19   R(11,14)                1.07           estimate D2E/DX2                !
 ! R20   R(15,16)                1.07           estimate D2E/DX2                !
 ! R21   R(15,17)                1.07           estimate D2E/DX2                !
 ! R22   R(15,18)                1.07           estimate D2E/DX2                !
 ! R23   R(19,20)                1.07           estimate D2E/DX2                !
 ! R24   R(19,21)                1.07           estimate D2E/DX2                !
 ! R25   R(19,22)                1.07           estimate D2E/DX2                !
 ! A1    A(2,1,7)              120.4036         estimate D2E/DX2                !
 ! A2    A(2,1,9)              107.0339         estimate D2E/DX2                !
 ! A3    A(7,1,9)              132.5625         estimate D2E/DX2                !
 ! A4    A(1,2,3)              120.4093         estimate D2E/DX2                !
 ! A5    A(1,2,10)             107.0347         estimate D2E/DX2                !
 ! A6    A(3,2,10)             132.5559         estimate D2E/DX2                !
 ! A7    A(2,3,8)              118.452          estimate D2E/DX2                !
 ! A8    A(2,3,24)             121.2714         estimate D2E/DX2                !
 ! A9    A(8,3,24)             120.2766         estimate D2E/DX2                !
 ! A10   A(7,4,8)              121.1411         estimate D2E/DX2                !
 ! A11   A(7,4,23)             119.1063         estimate D2E/DX2                !
 ! A12   A(8,4,23)             119.7526         estimate D2E/DX2                !
 ! A13   A(6,5,9)              125.2222         estimate D2E/DX2                !
 ! A14   A(6,5,10)             125.205          estimate D2E/DX2                !
 ! A15   A(9,5,10)             109.5728         estimate D2E/DX2                !
 ! A16   A(1,7,4)              118.4553         estimate D2E/DX2                !
 ! A17   A(1,7,11)             121.2745         estimate D2E/DX2                !
 ! A18   A(4,7,11)             120.2702         estimate D2E/DX2                !
 ! A19   A(3,8,4)              121.1386         estimate D2E/DX2                !
 ! A20   A(3,8,19)             119.1113         estimate D2E/DX2                !
 ! A21   A(4,8,19)             119.7501         estimate D2E/DX2                !
 ! A22   A(1,9,5)              108.183          estimate D2E/DX2                !
 ! A23   A(2,10,5)             108.1756         estimate D2E/DX2                !
 ! A24   A(2,10,15)            124.7422         estimate D2E/DX2                !
 ! A25   A(5,10,15)            127.0822         estimate D2E/DX2                !
 ! A26   A(7,11,12)            109.4712         estimate D2E/DX2                !
 ! A27   A(7,11,13)            109.4712         estimate D2E/DX2                !
 ! A28   A(7,11,14)            109.4712         estimate D2E/DX2                !
 ! A29   A(12,11,13)           109.4712         estimate D2E/DX2                !
 ! A30   A(12,11,14)           109.4712         estimate D2E/DX2                !
 ! A31   A(13,11,14)           109.4712         estimate D2E/DX2                !
 ! A32   A(10,15,16)           109.4712         estimate D2E/DX2                !
 ! A33   A(10,15,17)           109.4712         estimate D2E/DX2                !
 ! A34   A(10,15,18)           109.4712         estimate D2E/DX2                !
 ! A35   A(16,15,17)           109.4712         estimate D2E/DX2                !
 ! A36   A(16,15,18)           109.4712         estimate D2E/DX2                !
 ! A37   A(17,15,18)           109.4712         estimate D2E/DX2                !
 ! A38   A(8,19,20)            109.4712         estimate D2E/DX2                !
 ! A39   A(8,19,21)            109.4712         estimate D2E/DX2                !
 ! A40   A(8,19,22)            109.4712         estimate D2E/DX2                !
 ! A41   A(20,19,21)           109.4712         estimate D2E/DX2                !
 ! A42   A(20,19,22)           109.4712         estimate D2E/DX2                !
 ! A43   A(21,19,22)           109.4712         estimate D2E/DX2                !
 ! D1    D(7,1,2,3)             -0.0121         estimate D2E/DX2                !
 ! D2    D(7,1,2,10)           179.9938         estimate D2E/DX2                !
 ! D3    D(9,1,2,3)            179.9905         estimate D2E/DX2                !
 ! D4    D(9,1,2,10)            -0.0036         estimate D2E/DX2                !
 ! D5    D(2,1,7,4)              0.012          estimate D2E/DX2                !
 ! D6    D(2,1,7,11)          -179.9879         estimate D2E/DX2                !
 ! D7    D(9,1,7,4)           -179.9914         estimate D2E/DX2                !
 ! D8    D(9,1,7,11)             0.0086         estimate D2E/DX2                !
 ! D9    D(2,1,9,5)              0.0018         estimate D2E/DX2                !
 ! D10   D(7,1,9,5)           -179.9951         estimate D2E/DX2                !
 ! D11   D(1,2,3,8)              0.006          estimate D2E/DX2                !
 ! D12   D(1,2,3,24)          -179.991          estimate D2E/DX2                !
 ! D13   D(10,2,3,8)           179.9984         estimate D2E/DX2                !
 ! D14   D(10,2,3,24)            0.0013         estimate D2E/DX2                !
 ! D15   D(1,2,10,5)             0.0041         estimate D2E/DX2                !
 ! D16   D(1,2,10,15)         -179.9881         estimate D2E/DX2                !
 ! D17   D(3,2,10,5)          -179.989          estimate D2E/DX2                !
 ! D18   D(3,2,10,15)            0.0188         estimate D2E/DX2                !
 ! D19   D(2,3,8,4)             -0.0004         estimate D2E/DX2                !
 ! D20   D(2,3,8,19)           179.9989         estimate D2E/DX2                !
 ! D21   D(24,3,8,4)           179.9967         estimate D2E/DX2                !
 ! D22   D(24,3,8,19)           -0.004          estimate D2E/DX2                !
 ! D23   D(8,4,7,1)             -0.0065         estimate D2E/DX2                !
 ! D24   D(8,4,7,11)           179.9934         estimate D2E/DX2                !
 ! D25   D(23,4,7,1)          -179.9977         estimate D2E/DX2                !
 ! D26   D(23,4,7,11)            0.0022         estimate D2E/DX2                !
 ! D27   D(7,4,8,3)              0.0006         estimate D2E/DX2                !
 ! D28   D(7,4,8,19)          -179.9987         estimate D2E/DX2                !
 ! D29   D(23,4,8,3)           179.9918         estimate D2E/DX2                !
 ! D30   D(23,4,8,19)           -0.0076         estimate D2E/DX2                !
 ! D31   D(6,5,9,1)           -179.9992         estimate D2E/DX2                !
 ! D32   D(10,5,9,1)             0.0008         estimate D2E/DX2                !
 ! D33   D(6,5,10,2)           179.9969         estimate D2E/DX2                !
 ! D34   D(6,5,10,15)           -0.0112         estimate D2E/DX2                !
 ! D35   D(9,5,10,2)            -0.003          estimate D2E/DX2                !
 ! D36   D(9,5,10,15)          179.9889         estimate D2E/DX2                !
 ! D37   D(1,7,11,12)          -60.0024         estimate D2E/DX2                !
 ! D38   D(1,7,11,13)           59.9976         estimate D2E/DX2                !
 ! D39   D(1,7,11,14)          179.9976         estimate D2E/DX2                !
 ! D40   D(4,7,11,12)          119.9977         estimate D2E/DX2                !
 ! D41   D(4,7,11,13)         -120.0023         estimate D2E/DX2                !
 ! D42   D(4,7,11,14)           -0.0023         estimate D2E/DX2                !
 ! D43   D(3,8,19,20)          -60.0352         estimate D2E/DX2                !
 ! D44   D(3,8,19,21)           59.9648         estimate D2E/DX2                !
 ! D45   D(3,8,19,22)          179.9648         estimate D2E/DX2                !
 ! D46   D(4,8,19,20)          119.9641         estimate D2E/DX2                !
 ! D47   D(4,8,19,21)         -120.0359         estimate D2E/DX2                !
 ! D48   D(4,8,19,22)           -0.0359         estimate D2E/DX2                !
 ! D49   D(2,10,15,16)         -60.0066         estimate D2E/DX2                !
 ! D50   D(2,10,15,17)          59.9934         estimate D2E/DX2                !
 ! D51   D(2,10,15,18)         179.9934         estimate D2E/DX2                !
 ! D52   D(5,10,15,16)         120.0027         estimate D2E/DX2                !
 ! D53   D(5,10,15,17)        -119.9972         estimate D2E/DX2                !
 ! D54   D(5,10,15,18)           0.0027         estimate D2E/DX2                !
 --------------------------------------------------------------------------------
 Trust Radius=3.00D-01 FncErr=1.00D-07 GrdErr=1.00D-07
 Number of steps in this run= 132 maximum allowed number of steps= 144.
 GradGradGradGradGradGradGradGradGradGradGradGradGradGradGradGradGradGrad

                          Input orientation:                          
 ---------------------------------------------------------------------
 Center     Atomic      Atomic             Coordinates (Angstroms)
 Number     Number       Type             X           Y           Z
 ---------------------------------------------------------------------
      1          6           0        0.000000    0.000000    0.000000
      2          6           0        0.000000    0.000000    1.445779
      3          6           0        1.190440    0.000000    2.144467
      4          6           0        2.392927    0.000247    0.028009
      5          6           0       -2.205199   -0.000322    0.722621
      6          1           0       -3.294794   -0.000505    0.722722
      7          7           0        1.190462    0.000252   -0.698541
      8          7           0        2.392928    0.000130    1.417972
      9          7           0       -1.393719   -0.000230   -0.427004
     10          7           0       -1.393559   -0.000143    1.872756
     11          6           0        1.212805    0.000522   -2.168371
     12          1           0        0.714009   -0.873136   -2.532822
     13          1           0        0.713753    0.874167   -2.532504
     14          1           0        2.226915    0.000733   -2.509664
     15          6           0       -1.840671    0.000062    3.273110
     16          1           0       -1.468601   -0.873488    3.766440
     17          1           0       -1.468696    0.873815    3.766153
     18          1           0       -2.910164    0.000010    3.306042
     19          6           0        3.669180    0.000157    2.147411
     20          1           0        3.728755    0.874076    2.761916
     21          1           0        3.728333   -0.873226    2.762719
     22          1           0        4.479424   -0.000360    1.448552
     23          8           0        3.634419    0.000556   -0.681637
     24          8           0        1.211954   -0.000191    3.574305
 ---------------------------------------------------------------------
                    Distance matrix (angstroms):
                    1          2          3          4          5
     1  C    0.000000
     2  C    1.445779   0.000000
     3  C    2.452730   1.380331   0.000000
     4  C    2.393091   2.781397   2.434208   0.000000
     5  C    2.320578   2.320746   3.681306   4.650296   0.000000
     6  H    3.373128   3.373200   4.705176   5.729991   1.089595
     7  N    1.380275   2.452613   2.843008   1.404919   3.681062
     8  N    2.781501   2.393090   1.404910   1.389963   4.650407
     9  N    1.457664   2.334474   3.645592   3.813886   1.407174
    10  N    2.334357   1.457503   2.598245   4.211955   1.407683
    11  C    2.484498   3.812214   4.312896   2.493346   4.476671
    12  H    2.772609   4.135389   4.781881   3.184245   4.458866
    13  H    2.772578   4.135257   4.781784   3.184272   4.458795
    14  H    3.355229   4.539237   4.768146   2.543097   5.485554
    15  C    3.755172   2.593686   3.234419   5.334232   2.576407
    16  H    4.135920   2.881881   3.234853   5.445244   3.251127
    17  H    4.135762   2.881797   3.234876   5.445087   3.251098
    18  H    4.404426   3.453930   4.261949   6.234443   2.677880
    19  C    4.251383   3.735661   2.478741   2.474002   6.044696
    20  H    4.721843   4.049671   2.754686   3.165795   6.335227
    21  H    4.721822   4.049360   2.754207   3.166212   6.334884
    22  H    4.707817   4.479425   3.361802   2.524166   6.723924
    23  O    3.697787   4.211283   3.736295   1.430000   6.006087
    24  O    3.774187   2.449379   1.430000   3.737768   4.450735
                    6          7          8          9         10
     6  H    0.000000
     7  N    4.705052   0.000000
     8  N    5.730057   2.434246   0.000000
     9  N    2.221701   2.598408   4.212200   0.000000
    10  N    2.221997   3.645371   3.813701   2.299760   0.000000
    11  C    5.355078   1.470000   3.775520   3.134697   4.808725
    12  H    5.237418   2.086720   4.380655   3.104666   4.961157
    13  H    5.237366   2.086720   4.380620   3.104697   4.960998
    14  H    6.398249   2.086720   3.931143   4.176896   5.684491
    15  C    2.935805   4.996176   4.622218   3.727011   1.470000
    16  H    3.655311   5.269733   4.603251   4.284058   2.086720
    17  H    3.655344   5.269509   4.603197   4.283940   2.086720
    18  H    2.611797   5.731651   5.629173   4.029298   2.086720
    19  C    7.108211   3.774054   1.470000   5.679838   5.070183
    20  H    7.365693   4.379642   2.086720   6.096996   5.271903
    21  H    7.365293   4.379962   2.086720   6.096873   5.271440
    22  H    7.808027   3.927758   2.086720   6.165348   5.888283
    23  O    7.070093   2.444015   2.439192   5.034581   5.639635
    24  O    5.333133   4.272900   2.458551   4.774935   3.111908
                   11         12         13         14         15
    11  C    0.000000
    12  H    1.070000   0.000000
    13  H    1.070000   1.747303   0.000000
    14  H    1.070000   1.747303   1.747303   0.000000
    15  C    6.239666   6.402945   6.402679   7.070058   0.000000
    16  H    6.570830   6.666669   6.891565   7.335569   1.070000
    17  H    6.570515   6.891525   6.666046   7.335236   1.070000
    18  H    6.853326   6.927434   6.927160   7.759640   1.070000
    19  C    4.965859   5.603593   5.603575   4.875293   5.623669
    20  H    5.603645   6.338430   6.092710   5.550478   5.660717
    21  H    5.604192   6.093348   6.338806   5.551223   5.660118
    22  H    4.873699   5.549002   5.549224   4.554259   6.578192
    23  O    2.841583   3.566373   3.566397   2.307108   6.754009
    24  O    5.742676   6.189263   6.189170   6.168049   3.067448
                   16         17         18         19         20
    16  H    0.000000
    17  H    1.747303   0.000000
    18  H    1.747303   1.747303   0.000000
    19  C    5.457225   5.457231   6.680583   0.000000
    20  H    5.574546   5.293580   6.718282   1.070000   0.000000
    21  H    5.292974   5.573880   6.717691   1.070000   1.747303
    22  H    6.443132   6.443259   7.619467   1.070000   1.747303
    23  O    6.825698   6.825482   7.663756   2.829263   3.553871
    24  O    2.825764   2.826054   4.130838   2.841475   2.785427
                   21         22         23         24
    21  H    0.000000
    22  H    1.747303   0.000000
    23  O    3.554702   2.291668   0.000000
    24  O    2.784425   3.898100   4.897079   0.000000
 Stoichiometry    C8H10N4O2
 Framework group  C1[X(C8H10N4O2)]
 Deg. of freedom    66
 Full point group                 C1      NOp   1
 Largest Abelian subgroup         C1      NOp   1
 Largest concise Abelian subgroup C1      NOp   1
                         Standard orientation:                         
 ---------------------------------------------------------------------
 Center     Atomic      Atomic             Coordinates (Angstroms)
 Number     Number       Type             X           Y           Z
 ---------------------------------------------------------------------
      1          6           0        0.291620   -1.163405   -0.000095
      2          6           0        0.905396    0.145623    0.000007
      3          6           0        0.124169    1.283602   -0.000037
      4          6           0       -1.863079   -0.122177   -0.000035
      5          6           0        2.595012   -1.445307   -0.000191
      6          1           0        3.581589   -1.907782   -0.000288
      7          7           0       -1.082793   -1.290487    0.000014
      8          7           0       -1.272999    1.136316   -0.000054
      9          7           0        1.372237   -2.141696   -0.000245
     10          7           0        2.348409   -0.059394    0.000004
     11          6           0       -1.727009   -2.611807    0.000179
     12          1           0       -1.430024   -3.153513   -0.873465
     13          1           0       -1.429835   -3.153387    0.873837
     14          1           0       -2.790087   -2.490298    0.000285
     15          6           0        3.347722    1.018694    0.000344
     16          1           0        3.220367    1.623343   -0.873201
     17          1           0        3.220154    1.622990    0.874102
     18          1           0        4.330037    0.594480    0.000378
     19          6           0       -2.118866    2.338567   -0.000076
     20          1           0       -1.912019    2.920213    0.873882
     21          1           0       -1.911119    2.920814   -0.873421
     22          1           0       -3.149159    2.049783   -0.000706
     23          8           0       -3.288409   -0.237650    0.000127
     24          8           0        0.711699    2.587331   -0.000130
 ---------------------------------------------------------------------
 Rotational constants (GHZ):      1.0174719      0.6579107      0.4024913
 Standard basis: 6-31+G (6D, 7F)
 There are   202 symmetry adapted basis functions of A   symmetry.
 Integral buffers will be    262144 words long.
 Raffenetti 1 integral format.
 Two-electron integral symmetry is turned on.
   202 basis functions,   404 primitive gaussians,   202 cartesian basis functions
    51 alpha electrons       51 beta electrons
       nuclear repulsion energy       901.5780652721 Hartrees.
 NAtoms=   24 NActive=   24 NUniq=   24 SFac= 7.50D-01 NAtFMM=   80 NAOKFM=F Big=F
 One-electron integrals computed using PRISM.
 NBasis=   202 RedAO= T  NBF=   202
 NBsUse=   202 1.00D-06 NBFU=   202
 Harris functional with IExCor=  205 diagonalized for initial guess.
 ExpMin= 4.38D-02 ExpMax= 5.48D+03 ExpMxC= 8.25D+02 IAcc=2 IRadAn=         0 AccDes= 0.00D+00
 HarFok:  IExCor=  205 AccDes= 0.00D+00 IRadAn=         0 IDoV= 1
 ScaDFX=  1.000000  1.000000  1.000000  1.000000
 FoFCou: FMM=F IPFlag=           0 FMFlag=      100000 FMFlg1=           0
         NFxFlg=           0 DoJE=T BraDBF=F KetDBF=T FulRan=T
         Omega=  0.000000  0.000000  1.000000  0.000000  0.000000 ICntrl=     500 IOpCl=  0
         NMat0=    1 NMatS0=    1 NMatT0=    0 NMatD0=    1 NMtDS0=    0 NMtDT0=    0
         I1Cent=           4 NGrid=           0.
 Petite list used in FoFCou.
 Initial guess orbital symmetries:
       Occupied  (A) (A) (A) (A) (A) (A) (A) (A) (A) (A) (A) (A)
                 (A) (A) (A) (A) (A) (A) (A) (A) (A) (A) (A) (A)
                 (A) (A) (A) (A) (A) (A) (A) (A) (A) (A) (A) (A)
                 (A) (A) (A) (A) (A) (A) (A) (A) (A) (A) (A) (A)
                 (A) (A) (A)
       Virtual   (A) (A) (A) (A) (A) (A) (A) (A) (A) (A) (A) (A)
                 (A) (A) (A) (A) (A) (A) (A) (A) (A) (A) (A) (A)
                 (A) (A) (A) (A) (A) (A) (A) (A) (A) (A) (A) (A)
                 (A) (A) (A) (A) (A) (A) (A) (A) (A) (A) (A) (A)
                 (A) (A) (A) (A) (A) (A) (A) (A) (A) (A) (A) (A)
                 (A) (A) (A) (A) (A) (A) (A) (A) (A) (A) (A) (A)
                 (A) (A) (A) (A) (A) (A) (A) (A) (A) (A) (A) (A)
                 (A) (A) (A) (A) (A) (A) (A) (A) (A) (A) (A) (A)
                 (A) (A) (A) (A) (A) (A) (A) (A) (A) (A) (A) (A)
                 (A) (A) (A) (A) (A) (A) (A) (A) (A) (A) (A) (A)
                 (A) (A) (A) (A) (A) (A) (A) (A) (A) (A) (A) (A)
                 (A) (A) (A) (A) (A) (A) (A) (A) (A) (A) (A) (A)
                 (A) (A) (A) (A) (A) (A) (A)
 The electronic state of the initial guess is 1-A.
 Requested convergence on RMS density matrix=1.00D-08 within 128 cycles.
 Requested convergence on MAX density matrix=1.00D-06.
 Requested convergence on             energy=1.00D-06.
 No special actions if energy rises.
 Initial convergence to 1.0D-05 achieved.  Increase integral accuracy.
 SCF Done:  E(RHF) =  -675.922632300     A.U. after   20 cycles
             Convg  =    0.7502D-08             -V/T =  2.0027

 **********************************************************************

            Population analysis using the SCF density.

 **********************************************************************

 Orbital symmetries:
       Occupied  (A) (A) (A) (A) (A) (A) (A) (A) (A) (A) (A) (A)
                 (A) (A) (A) (A) (A) (A) (A) (A) (A) (A) (A) (A)
                 (A) (A) (A) (A) (A) (A) (A) (A) (A) (A) (A) (A)
                 (A) (A) (A) (A) (A) (A) (A) (A) (A) (A) (A) (A)
                 (A) (A) (A)
       Virtual   (A) (A) (A) (A) (A) (A) (A) (A) (A) (A) (A) (A)
                 (A) (A) (A) (A) (A) (A) (A) (A) (A) (A) (A) (A)
                 (A) (A) (A) (A) (A) (A) (A) (A) (A) (A) (A) (A)
                 (A) (A) (A) (A) (A) (A) (A) (A) (A) (A) (A) (A)
                 (A) (A) (A) (A) (A) (A) (A) (A) (A) (A) (A) (A)
                 (A) (A) (A) (A) (A) (A) (A) (A) (A) (A) (A) (A)
                 (A) (A) (A) (A) (A) (A) (A) (A) (A) (A) (A) (A)
                 (A) (A) (A) (A) (A) (A) (A) (A) (A) (A) (A) (A)
                 (A) (A) (A) (A) (A) (A) (A) (A) (A) (A) (A) (A)
                 (A) (A) (A) (A) (A) (A) (A) (A) (A) (A) (A) (A)
                 (A) (A) (A) (A) (A) (A) (A) (A) (A) (A) (A) (A)
                 (A) (A) (A) (A) (A) (A) (A) (A) (A) (A) (A) (A)
                 (A) (A) (A) (A) (A) (A) (A)
 The electronic state is 1-A.
 Alpha  occ. eigenvalues --  -20.54872 -20.54163 -15.68951 -15.68858 -15.68295
 Alpha  occ. eigenvalues --  -15.62796 -11.45688 -11.41315 -11.39663 -11.39448
 Alpha  occ. eigenvalues --  -11.32724 -11.29384 -11.28335 -11.26920  -1.40781
 Alpha  occ. eigenvalues --   -1.35633  -1.32092  -1.27234  -1.23988  -1.19960
 Alpha  occ. eigenvalues --   -1.09887  -1.01636  -1.00414  -0.98848  -0.91621
 Alpha  occ. eigenvalues --   -0.89259  -0.83890  -0.79236  -0.73147  -0.70246
 Alpha  occ. eigenvalues --   -0.70195  -0.68977  -0.66282  -0.64581  -0.64488
 Alpha  occ. eigenvalues --   -0.62455  -0.59852  -0.58959  -0.58132  -0.57470
 Alpha  occ. eigenvalues --   -0.56603  -0.54662  -0.53771  -0.51162  -0.46712
 Alpha  occ. eigenvalues --   -0.46369  -0.44554  -0.42849  -0.40715  -0.40056
 Alpha  occ. eigenvalues --   -0.34171
 Alpha virt. eigenvalues --    0.03849   0.05269   0.06956   0.07614   0.07765
 Alpha virt. eigenvalues --    0.08428   0.09188   0.09774   0.10829   0.11393
 Alpha virt. eigenvalues --    0.11454   0.11923   0.12015   0.13282   0.13960
 Alpha virt. eigenvalues --    0.14194   0.15655   0.15781   0.16208   0.16664
 Alpha virt. eigenvalues --    0.17731   0.18367   0.19434   0.20269   0.20471
 Alpha virt. eigenvalues --    0.20966   0.21432   0.21726   0.23268   0.23821
 Alpha virt. eigenvalues --    0.25743   0.26183   0.26296   0.26353   0.27761
 Alpha virt. eigenvalues --    0.29132   0.29787   0.30514   0.30576   0.31104
 Alpha virt. eigenvalues --    0.31948   0.32425   0.32502   0.32958   0.33882
 Alpha virt. eigenvalues --    0.33935   0.34565   0.35149   0.35522   0.36498
 Alpha virt. eigenvalues --    0.36550   0.37304   0.37327   0.38522   0.39035
 Alpha virt. eigenvalues --    0.39692   0.39943   0.40238   0.40348   0.41031
 Alpha virt. eigenvalues --    0.41970   0.42700   0.44144   0.44840   0.46001
 Alpha virt. eigenvalues --    0.46112   0.47359   0.48512   0.48677   0.49166
 Alpha virt. eigenvalues --    0.50491   0.51327   0.53495   0.55041   0.56489
 Alpha virt. eigenvalues --    0.56968   0.57732   0.58777   0.60285   0.61293
 Alpha virt. eigenvalues --    0.62514   0.64134   0.68775   0.75882   0.78887
 Alpha virt. eigenvalues --    0.86947   0.88206   0.89602   0.92057   0.92605
 Alpha virt. eigenvalues --    0.92785   0.93437   0.95236   0.96065   0.97304
 Alpha virt. eigenvalues --    0.98206   0.99567   1.02782   1.03987   1.06239
 Alpha virt. eigenvalues --    1.06962   1.09037   1.10701   1.16711   1.16968
 Alpha virt. eigenvalues --    1.17410   1.17572   1.18875   1.22022   1.22578
 Alpha virt. eigenvalues --    1.24399   1.25915   1.30041   1.30319   1.31606
 Alpha virt. eigenvalues --    1.32460   1.34348   1.35915   1.36193   1.37026
 Alpha virt. eigenvalues --    1.37926   1.41874   1.43843   1.48256   1.49466
 Alpha virt. eigenvalues --    1.51351   1.52425   1.54498   1.57636   1.58417
 Alpha virt. eigenvalues --    1.60039   1.60392   1.62334   1.67085   1.70858
 Alpha virt. eigenvalues --    1.73429   1.74877   1.77558   1.80690   1.81849
 Alpha virt. eigenvalues --    1.85074   1.87694   1.91065   1.91797   2.01431
 Alpha virt. eigenvalues --    2.05967   2.09456   2.10873   2.28651   2.43558
 Alpha virt. eigenvalues --    2.59510
          Condensed to atoms (all electrons):
              1          2          3          4          5          6
     1  C   30.573486 -23.959969   3.316611  -3.748281   0.047198   0.004045
     2  C  -23.959969  99.638078 -68.933128   4.244431   0.688377  -0.017639
     3  C    3.316611 -68.933128  72.071194  -3.633932  -1.296884   0.052764
     4  C   -3.748281   4.244431  -3.633932   9.187913  -0.145413  -0.001205
     5  C    0.047198   0.688377  -1.296884  -0.145413   6.007182   0.385863
     6  H    0.004045  -0.017639   0.052764  -0.001205   0.385863   0.393059
     7  N    0.885444  -1.433741   0.198201  -0.120663   0.063456   0.001420
     8  N    0.268484  -3.273019   2.218008  -0.047348  -0.074001  -0.000042
     9  N   -1.217190   2.243687  -0.654902  -0.026982   0.334476  -0.028842
    10  N    0.566055  -0.460996  -0.124221  -0.092602  -0.120799  -0.079005
    11  C    0.238784  -0.808831  -0.005498  -0.217549  -0.013147   0.001346
    12  H   -0.000037  -0.000105  -0.006098  -0.015670  -0.002823   0.000000
    13  H   -0.000033  -0.000100  -0.006128  -0.015655  -0.002821   0.000000
    14  H   -0.017880  -0.026565   0.004375   0.057500  -0.001111   0.000000
    15  C   -0.442181  -0.035830   0.141775   0.005591  -0.107565   0.006270
    16  H   -0.030211  -0.195129   0.210645  -0.001000  -0.019323  -0.000027
    17  H   -0.030295  -0.195215   0.210843  -0.001001  -0.019350  -0.000027
    18  H    0.048112   0.115878  -0.176065   0.000408   0.037868  -0.000993
    19  C   -0.066828  -3.019774   2.337736  -0.344303  -0.037935   0.000024
    20  H   -0.005207  -0.034003   0.046553  -0.029918   0.000011   0.000000
    21  H   -0.005228  -0.034129   0.046722  -0.030016   0.000012   0.000000
    22  H    0.008858  -0.004378  -0.030128   0.054522   0.000079   0.000000
    23  O    0.204417  -0.177704   0.151947   0.326855   0.006342   0.000001
    24  O   -0.348528   1.009130  -0.402894   0.093003   0.000718  -0.000097
              7          8          9         10         11         12
     1  C    0.885444   0.268484  -1.217190   0.566055   0.238784  -0.000037
     2  C   -1.433741  -3.273019   2.243687  -0.460996  -0.808831  -0.000105
     3  C    0.198201   2.218008  -0.654902  -0.124221  -0.005498  -0.006098
     4  C   -0.120663  -0.047348  -0.026982  -0.092602  -0.217549  -0.015670
     5  C    0.063456  -0.074001   0.334476  -0.120799  -0.013147  -0.002823
     6  H    0.001420  -0.000042  -0.028842  -0.079005   0.001346   0.000000
     7  N    9.442931  -0.880962  -0.323748  -0.010061   0.221636  -0.048025
     8  N   -0.880962   9.794173  -0.057046  -0.003451  -0.215685  -0.003606
     9  N   -0.323748  -0.057046   7.252047  -0.071880  -0.168057  -0.002062
    10  N   -0.010061  -0.003451  -0.071880   8.056982  -0.002700   0.000030
    11  C    0.221636  -0.215685  -0.168057  -0.002700   6.188345   0.430181
    12  H   -0.048025  -0.003606  -0.002062   0.000030   0.430181   0.484421
    13  H   -0.048018  -0.003605  -0.002064   0.000030   0.430179  -0.033183
    14  H   -0.083298   0.013114  -0.000796   0.000250   0.418704  -0.024625
    15  C   -0.030701  -0.020366   0.044114  -0.059422  -0.009010   0.000125
    16  H   -0.000002  -0.000468  -0.000010  -0.025962  -0.000053   0.000000
    17  H   -0.000002  -0.000468  -0.000006  -0.025972  -0.000053   0.000000
    18  H   -0.000171   0.000150   0.001695  -0.094802   0.000050   0.000000
    19  C   -0.247707   0.281017  -0.009199   0.011468  -0.108006  -0.000893
    20  H   -0.003106  -0.042620  -0.000030   0.000306  -0.001150   0.000000
    21  H   -0.003109  -0.042709  -0.000030   0.000307  -0.001151   0.000000
    22  H    0.010674  -0.092074  -0.000006  -0.000052   0.003405   0.000000
    23  O   -0.071119  -0.074722  -0.003318   0.001632  -0.094883   0.000624
    24  O   -0.009234  -0.113385   0.012028  -0.014923  -0.000856  -0.000004
             13         14         15         16         17         18
     1  C   -0.000033  -0.017880  -0.442181  -0.030211  -0.030295   0.048112
     2  C   -0.000100  -0.026565  -0.035830  -0.195129  -0.195215   0.115878
     3  C   -0.006128   0.004375   0.141775   0.210645   0.210843  -0.176065
     4  C   -0.015655   0.057500   0.005591  -0.001000  -0.001001   0.000408
     5  C   -0.002821  -0.001111  -0.107565  -0.019323  -0.019350   0.037868
     6  H    0.000000   0.000000   0.006270  -0.000027  -0.000027  -0.000993
     7  N   -0.048018  -0.083298  -0.030701  -0.000002  -0.000002  -0.000171
     8  N   -0.003605   0.013114  -0.020366  -0.000468  -0.000468   0.000150
     9  N   -0.002064  -0.000796   0.044114  -0.000010  -0.000006   0.001695
    10  N    0.000030   0.000250  -0.059422  -0.025962  -0.025972  -0.094802
    11  C    0.430179   0.418704  -0.009010  -0.000053  -0.000053   0.000050
    12  H   -0.033183  -0.024625   0.000125   0.000000   0.000000   0.000000
    13  H    0.484423  -0.024626   0.000125   0.000000   0.000000   0.000000
    14  H   -0.024626   0.404152  -0.000020   0.000000   0.000000   0.000000
    15  C    0.000125  -0.000020   5.530857   0.430206   0.430207   0.409089
    16  H    0.000000   0.000000   0.430206   0.449498  -0.027206  -0.029192
    17  H    0.000000   0.000000   0.430207  -0.027206   0.449527  -0.029194
    18  H    0.000000   0.000000   0.409089  -0.029192  -0.029194   0.532886
    19  C   -0.000893   0.003067  -0.001921   0.001762   0.001763  -0.000496
    20  H    0.000000   0.000000   0.000163   0.000000   0.000001   0.000000
    21  H    0.000000   0.000000   0.000165   0.000001   0.000000   0.000000
    22  H    0.000000   0.000010  -0.000256   0.000000   0.000000   0.000000
    23  O    0.000624  -0.004048  -0.000451   0.000000   0.000000   0.000000
    24  O   -0.000004   0.000007  -0.007818  -0.009811  -0.009808   0.003582
             19         20         21         22         23         24
     1  C   -0.066828  -0.005207  -0.005228   0.008858   0.204417  -0.348528
     2  C   -3.019774  -0.034003  -0.034129  -0.004378  -0.177704   1.009130
     3  C    2.337736   0.046553   0.046722  -0.030128   0.151947  -0.402894
     4  C   -0.344303  -0.029918  -0.030016   0.054522   0.326855   0.093003
     5  C   -0.037935   0.000011   0.000012   0.000079   0.006342   0.000718
     6  H    0.000024   0.000000   0.000000   0.000000   0.000001  -0.000097
     7  N   -0.247707  -0.003106  -0.003109   0.010674  -0.071119  -0.009234
     8  N    0.281017  -0.042620  -0.042709  -0.092074  -0.074722  -0.113385
     9  N   -0.009199  -0.000030  -0.000030  -0.000006  -0.003318   0.012028
    10  N    0.011468   0.000306   0.000307  -0.000052   0.001632  -0.014923
    11  C   -0.108006  -0.001150  -0.001151   0.003405  -0.094883  -0.000856
    12  H   -0.000893   0.000000   0.000000   0.000000   0.000624  -0.000004
    13  H   -0.000893   0.000000   0.000000   0.000000   0.000624  -0.000004
    14  H    0.003067   0.000000   0.000000   0.000010  -0.004048   0.000007
    15  C   -0.001921   0.000163   0.000165  -0.000256  -0.000451  -0.007818
    16  H    0.001762   0.000000   0.000001   0.000000   0.000000  -0.009811
    17  H    0.001763   0.000001   0.000000   0.000000   0.000000  -0.009808
    18  H   -0.000496   0.000000   0.000000   0.000000   0.000000   0.003582
    19  C    6.440908   0.427893   0.428043   0.411475  -0.106942  -0.141935
    20  H    0.427893   0.468799  -0.028114  -0.027300   0.001362  -0.004302
    21  H    0.428043  -0.028114   0.468797  -0.027311   0.001369  -0.004303
    22  H    0.411475  -0.027300  -0.027311   0.429147  -0.007009   0.001201
    23  O   -0.106942   0.001362   0.001369  -0.007009   8.414325  -0.001690
    24  O   -0.141935  -0.004302  -0.004303   0.001201  -0.001690   8.470357
 Mulliken atomic charges:
              1
     1  C   -0.289625
     2  C    0.670675
     3  C    0.262504
     4  C    0.501316
     5  C    0.269589
     6  H    0.283084
     7  N   -0.510096
     8  N   -0.629368
     9  N   -0.321879
    10  N   -0.450209
    11  C   -0.286000
    12  H    0.221750
    13  H    0.221749
    14  H    0.281790
    15  C   -0.283146
    16  H    0.246284
    17  H    0.246259
    18  H    0.181197
    19  C   -0.258325
    20  H    0.230662
    21  H    0.230685
    22  H    0.269144
    23  O   -0.567609
    24  O   -0.520431
 Sum of Mulliken atomic charges =   0.00000
 Mulliken charges with hydrogens summed into heavy atoms:
              1
     1  C   -0.289625
     2  C    0.670675
     3  C    0.262504
     4  C    0.501316
     5  C    0.552674
     7  N   -0.510096
     8  N   -0.629368
     9  N   -0.321879
    10  N   -0.450209
    11  C    0.439289
    15  C    0.390593
    19  C    0.472166
    23  O   -0.567609
    24  O   -0.520431
 Sum of Mulliken charges with hydrogens summed into heavy atoms =   0.00000
 Electronic spatial extent (au):  <R**2>=           2692.5074
 Charge=              0.0000 electrons
 Dipole moment (field-independent basis, Debye):
    X=              5.2050    Y=             -2.5427    Z=              0.0005  Tot=              5.7928
 Quadrupole moment (field-independent basis, Debye-Ang):
   XX=            -78.4720   YY=            -92.3062   ZZ=            -84.1858
   XY=             -4.6787   XZ=              0.0027   YZ=             -0.0003
 Traceless Quadrupole moment (field-independent basis, Debye-Ang):
   XX=              6.5160   YY=             -7.3182   ZZ=              0.8022
   XY=             -4.6787   XZ=              0.0027   YZ=             -0.0003
 Octapole moment (field-independent basis, Debye-Ang**2):
  XXX=            149.8943  YYY=            -21.9177  ZZZ=              0.0032  XYY=            -44.5734
  XXY=              4.3199  XXZ=             -0.0027  XZZ=             -3.4163  YZZ=              4.5714
  YYZ=              0.0054  XYZ=              0.0048
 Hexadecapole moment (field-independent basis, Debye-Ang**3):
 XXXX=          -2024.1889 YYYY=          -1505.9094 ZZZZ=           -103.6242 XXXY=            -63.3217
 XXXZ=              0.0223 YYYX=              6.5044 YYYZ=             -0.0158 ZZZX=              0.0015
 ZZZY=              0.0011 XXYY=           -473.3693 XXZZ=           -374.1200 YYZZ=           -245.6148
 XXYZ=              0.0054 YYXZ=              0.0010 ZZXY=              7.6576
 N-N= 9.015780652721D+02 E-N=-3.383446606305D+03  KE= 6.740911656875D+02
 Calling FoFJK, ICntrl=      2127 FMM=F ISym2X=0 I1Cent= 0 IOpClX= 0 NMat=1 NMatS=1 NMatT=0.
 ***** Axes restored to original set *****
 -------------------------------------------------------------------
 Center     Atomic                   Forces (Hartrees/Bohr)
 Number     Number              X              Y              Z
 -------------------------------------------------------------------
      1        6          -0.076593350   -0.000004728    0.066153667
      2        6          -0.052611516   -0.000003812   -0.069675660
      3        6           0.027456647   -0.000020045    0.152629494
      4        6           0.100721153    0.000053144   -0.067267076
      5        6           0.111126930    0.000020527   -0.005435765
      6        1           0.019215620    0.000005479   -0.000384499
      7        7           0.010778360   -0.000017552    0.030907116
      8        7          -0.041646020   -0.000011265   -0.027172642
      9        7           0.018642057    0.000005812    0.039281037
     10        7           0.005215439   -0.000005721   -0.051413431
     11        6           0.001280286   -0.000003805   -0.000515080
     12        1          -0.004469990   -0.005998963   -0.001122009
     13        1          -0.004472080    0.005998466   -0.001118138
     14        1           0.004796956   -0.000000057    0.003697506
     15        6           0.004788850   -0.000009075   -0.006834246
     16        1           0.003127452   -0.003552652    0.003438207
     17        1           0.003126835    0.003555765    0.003436277
     18        1          -0.007957272   -0.000000570   -0.003513875
     19        6           0.004003168   -0.000006957    0.000679263
     20        1          -0.002444298    0.004404946    0.004548098
     21        1          -0.002455388   -0.004395599    0.004550214
     22        1          -0.001477082    0.000001357   -0.006564644
     23        8          -0.125846184   -0.000037357    0.069868894
     24        8           0.005693428    0.000022663   -0.138172708
 -------------------------------------------------------------------
 Cartesian Forces:  Max     0.152629494 RMS     0.040449188

 GradGradGradGradGradGradGradGradGradGradGradGradGradGradGradGradGradGrad
 Berny optimization.
 Internal  Forces:  Max     0.143929529 RMS     0.025194279
 Search for a local minimum.
 Step number   1 out of a maximum of  132
 All quantities printed in internal units (Hartrees-Bohrs-Radians)
 Mixed Optimization -- RFO/linear search
 Second derivative matrix not updated -- first step.
     Eigenvalues ---    0.00766   0.00766   0.00766   0.01046   0.01266
     Eigenvalues ---    0.01329   0.01346   0.01502   0.01592   0.01618
     Eigenvalues ---    0.01658   0.01730   0.01744   0.01925   0.02044
     Eigenvalues ---    0.07537   0.07537   0.07537   0.07537   0.07537
     Eigenvalues ---    0.07537   0.16000   0.16000   0.16000   0.16000
     Eigenvalues ---    0.16000   0.16000   0.16000   0.16000   0.16000
     Eigenvalues ---    0.16000   0.23637   0.25000   0.25000   0.25000
     Eigenvalues ---    0.25000   0.25000   0.25000   0.25000   0.25000
     Eigenvalues ---    0.25000   0.34858   0.34859   0.35268   0.35740
     Eigenvalues ---    0.35740   0.35740   0.37230   0.37230   0.37230
     Eigenvalues ---    0.37230   0.37230   0.37230   0.37230   0.37230
     Eigenvalues ---    0.37230   0.37303   0.40989   0.40989   0.42367
     Eigenvalues ---    0.42606   0.43625   0.43778   0.46254   0.47733
     Eigenvalues ---    0.487071000.000001000.000001000.000001000.00000
     Eigenvalues --- 1000.000001000.000001000.000001000.000001000.00000
     Eigenvalues --- 1000.000001000.000001000.000001000.000001000.00000
     Eigenvalues --- 1000.000001000.000001000.000001000.000001000.00000
     Eigenvalues --- 1000.000001000.000001000.000001000.000001000.00000
     Eigenvalues --- 1000.000001000.000001000.000001000.000001000.00000
     Eigenvalues --- 1000.000001000.000001000.000001000.000001000.00000
     Eigenvalues --- 1000.000001000.000001000.000001000.000001000.00000
     Eigenvalues --- 1000.000001000.000001000.000001000.000001000.00000
     Eigenvalues --- 1000.000001000.000001000.000001000.000001000.00000
     Eigenvalues --- 1000.000001000.000001000.000001000.000001000.00000
     Eigenvalues --- 1000.000001000.00000
 RFO step:  Lambda=-1.44628226D-01 EMin= 7.65814501D-03
 Linear search not attempted -- first point.
 Maximum step size (   0.300) exceeded in Quadratic search.
    -- Step size scaled by   0.573
 Iteration  1 RMS(Cart)=  0.04582031 RMS(Int)=  0.00040844
 Iteration  2 RMS(Cart)=  0.00055890 RMS(Int)=  0.00002708
 Iteration  3 RMS(Cart)=  0.00000042 RMS(Int)=  0.00002708
 Variable       Old X    -DE/DX   Delta X   Delta X   Delta X     New X
                                 (Linear)    (Quad)   (Total)
    R1        2.73213  -0.06643   0.00000  -0.06934  -0.06938   2.66275
    R2        2.60834  -0.02557   0.00000  -0.02358  -0.02359   2.58475
    R3        2.75459  -0.08219   0.00000  -0.09091  -0.09084   2.66374
    R4        2.60845   0.00794   0.00000   0.00801   0.00800   2.61645
    R5        2.75428  -0.07114   0.00000  -0.07789  -0.07797   2.67631
    R6        2.65490  -0.03237   0.00000  -0.03075  -0.03074   2.62416
    R7        2.70231  -0.13807   0.00000  -0.14268  -0.14268   2.55963
    R8        2.65491  -0.04254   0.00000  -0.04203  -0.04201   2.61290
    R9        2.62665  -0.02849   0.00000  -0.02675  -0.02673   2.59992
   R10        2.70231  -0.14393   0.00000  -0.14873  -0.14873   2.55358
   R11        2.05904  -0.01922   0.00000  -0.02232  -0.02232   2.03671
   R12        2.65917  -0.07656   0.00000  -0.07595  -0.07589   2.58328
   R13        2.66013  -0.06732   0.00000  -0.06665  -0.06668   2.59345
   R14        2.77790  -0.00099   0.00000  -0.00113  -0.00113   2.77677
   R15        2.77790  -0.00047   0.00000  -0.00053  -0.00053   2.77737
   R16        2.77790  -0.00425   0.00000  -0.00485  -0.00485   2.77305
   R17        2.02201   0.00736   0.00000   0.00816   0.00816   2.03017
   R18        2.02201   0.00736   0.00000   0.00816   0.00816   2.03017
   R19        2.02201   0.00337   0.00000   0.00373   0.00373   2.02574
   R20        2.02201   0.00557   0.00000   0.00618   0.00618   2.02818
   R21        2.02201   0.00557   0.00000   0.00618   0.00618   2.02819
   R22        2.02201   0.00785   0.00000   0.00870   0.00870   2.03070
   R23        2.02201   0.00607   0.00000   0.00673   0.00673   2.02874
   R24        2.02201   0.00607   0.00000   0.00673   0.00673   2.02873
   R25        2.02201   0.00317   0.00000   0.00351   0.00351   2.02552
    A1        2.10144   0.00176   0.00000   0.00152   0.00146   2.10290
    A2        1.86809   0.02600   0.00000   0.03994   0.03999   1.90809
    A3        2.31365  -0.02776   0.00000  -0.04146  -0.04146   2.27220
    A4        2.10154   0.00738   0.00000   0.01153   0.01155   2.11309
    A5        1.86811  -0.00945   0.00000  -0.01176  -0.01185   1.85626
    A6        2.31354   0.00207   0.00000   0.00023   0.00030   2.31384
    A7        2.06738  -0.01963   0.00000  -0.02578  -0.02579   2.04159
    A8        2.11658   0.02032   0.00000   0.02814   0.02814   2.14473
    A9        2.09922  -0.00068   0.00000  -0.00236  -0.00235   2.09687
   A10        2.11431  -0.00523   0.00000  -0.00905  -0.00903   2.10529
   A11        2.07880   0.00019   0.00000   0.00101   0.00099   2.07979
   A12        2.09008   0.00504   0.00000   0.00804   0.00803   2.09811
   A13        2.18554  -0.01663   0.00000  -0.02419  -0.02419   2.16135
   A14        2.18524  -0.01584   0.00000  -0.02271  -0.02271   2.16253
   A15        1.91241   0.03246   0.00000   0.04690   0.04690   1.95931
   A16        2.06743   0.00502   0.00000   0.00546   0.00546   2.07289
   A17        2.11664  -0.00340   0.00000  -0.00402  -0.00402   2.11262
   A18        2.09911  -0.00162   0.00000  -0.00144  -0.00143   2.09768
   A19        2.11427   0.01071   0.00000   0.01632   0.01634   2.13061
   A20        2.07888  -0.00822   0.00000  -0.01232  -0.01233   2.06655
   A21        2.09003  -0.00249   0.00000  -0.00400  -0.00401   2.08602
   A22        1.88815  -0.03199   0.00000  -0.04969  -0.04954   1.83861
   A23        1.88802  -0.01702   0.00000  -0.02538  -0.02551   1.86251
   A24        2.17716   0.00919   0.00000   0.01369   0.01375   2.19091
   A25        2.21800   0.00782   0.00000   0.01170   0.01176   2.22976
   A26        1.91063  -0.00073   0.00000  -0.00132  -0.00133   1.90930
   A27        1.91063  -0.00073   0.00000  -0.00133  -0.00134   1.90929
   A28        1.91063  -0.00664   0.00000  -0.01258  -0.01260   1.89804
   A29        1.91063   0.00102   0.00000   0.00210   0.00209   1.91273
   A30        1.91063   0.00354   0.00000   0.00657   0.00655   1.91718
   A31        1.91063   0.00354   0.00000   0.00657   0.00655   1.91718
   A32        1.91063   0.00132   0.00000   0.00245   0.00245   1.91309
   A33        1.91063   0.00132   0.00000   0.00245   0.00245   1.91308
   A34        1.91063  -0.00544   0.00000  -0.01017  -0.01016   1.90047
   A35        1.91063  -0.00152   0.00000  -0.00298  -0.00298   1.90765
   A36        1.91063   0.00216   0.00000   0.00412   0.00413   1.91476
   A37        1.91063   0.00216   0.00000   0.00412   0.00413   1.91476
   A38        1.91063  -0.00139   0.00000  -0.00273  -0.00274   1.90789
   A39        1.91063  -0.00140   0.00000  -0.00275  -0.00276   1.90787
   A40        1.91063  -0.00727   0.00000  -0.01345  -0.01348   1.89716
   A41        1.91063   0.00060   0.00000   0.00068   0.00067   1.91131
   A42        1.91063   0.00472   0.00000   0.00911   0.00909   1.91973
   A43        1.91063   0.00473   0.00000   0.00913   0.00911   1.91974
    D1       -0.00021   0.00000   0.00000   0.00001   0.00001  -0.00020
    D2        3.14148   0.00000   0.00000   0.00001   0.00001   3.14150
    D3        3.14143   0.00000   0.00000   0.00001   0.00001   3.14143
    D4       -0.00006   0.00000   0.00000   0.00001   0.00001  -0.00005
    D5        0.00021   0.00000   0.00000  -0.00002  -0.00002   0.00019
    D6       -3.14138   0.00000   0.00000  -0.00001  -0.00001  -3.14140
    D7       -3.14144   0.00000   0.00000  -0.00001  -0.00001  -3.14145
    D8        0.00015   0.00000   0.00000  -0.00001  -0.00001   0.00014
    D9        0.00003   0.00000   0.00000   0.00000   0.00000   0.00003
   D10       -3.14151   0.00000   0.00000  -0.00001  -0.00001  -3.14152
   D11        0.00011   0.00000   0.00000   0.00000   0.00000   0.00010
   D12       -3.14144   0.00000   0.00000   0.00000  -0.00001  -3.14144
   D13        3.14156   0.00000   0.00000  -0.00001  -0.00001   3.14156
   D14        0.00002   0.00000   0.00000  -0.00001  -0.00001   0.00001
   D15        0.00007  -0.00001   0.00000  -0.00002  -0.00002   0.00006
   D16       -3.14138  -0.00001   0.00000  -0.00002  -0.00002  -3.14140
   D17       -3.14140   0.00000   0.00000  -0.00001  -0.00001  -3.14141
   D18        0.00033   0.00000   0.00000  -0.00001  -0.00001   0.00032
   D19       -0.00001   0.00000   0.00000   0.00000   0.00000  -0.00001
   D20        3.14157   0.00000   0.00000   0.00000   0.00000   3.14158
   D21        3.14153   0.00000   0.00000   0.00001   0.00001   3.14154
   D22       -0.00007   0.00000   0.00000   0.00001   0.00001  -0.00006
   D23       -0.00011   0.00001   0.00000   0.00002   0.00002  -0.00010
   D24        3.14148   0.00000   0.00000   0.00001   0.00001   3.14149
   D25       -3.14155   0.00000   0.00000  -0.00001  -0.00001  -3.14156
   D26        0.00004   0.00000   0.00000  -0.00001  -0.00001   0.00003
   D27        0.00001   0.00000   0.00000  -0.00001  -0.00001   0.00000
   D28       -3.14157   0.00000   0.00000  -0.00001  -0.00001  -3.14158
   D29        3.14145   0.00000   0.00000   0.00002   0.00002   3.14147
   D30       -0.00013   0.00000   0.00000   0.00002   0.00002  -0.00012
   D31       -3.14158   0.00000   0.00000   0.00000   0.00000  -3.14158
   D32        0.00001   0.00000   0.00000  -0.00001  -0.00001   0.00001
   D33        3.14154   0.00000   0.00000   0.00001   0.00001   3.14155
   D34       -0.00019   0.00000   0.00000   0.00001   0.00001  -0.00019
   D35       -0.00005   0.00000   0.00000   0.00001   0.00001  -0.00004
   D36        3.14140   0.00000   0.00000   0.00001   0.00001   3.14141
   D37       -1.04724  -0.00018   0.00000  -0.00047  -0.00047  -1.04770
   D38        1.04716   0.00018   0.00000   0.00047   0.00046   1.04762
   D39        3.14155   0.00000   0.00000   0.00000   0.00000   3.14155
   D40        2.09435  -0.00018   0.00000  -0.00047  -0.00046   2.09389
   D41       -2.09444   0.00018   0.00000   0.00047   0.00047  -2.09397
   D42       -0.00004   0.00000   0.00000   0.00000   0.00000  -0.00004
   D43       -1.04781   0.00048   0.00000   0.00126   0.00126  -1.04655
   D44        1.04658  -0.00048   0.00000  -0.00126  -0.00127   1.04532
   D45        3.14098   0.00000   0.00000   0.00000   0.00000   3.14098
   D46        2.09377   0.00048   0.00000   0.00126   0.00126   2.09503
   D47       -2.09502  -0.00048   0.00000  -0.00126  -0.00127  -2.09629
   D48       -0.00063   0.00000   0.00000   0.00000   0.00000  -0.00062
   D49       -1.04731   0.00012   0.00000   0.00032   0.00032  -1.04699
   D50        1.04708  -0.00013   0.00000  -0.00033  -0.00032   1.04676
   D51        3.14148   0.00000   0.00000   0.00000   0.00000   3.14148
   D52        2.09444   0.00013   0.00000   0.00033   0.00033   2.09477
   D53       -2.09435  -0.00012   0.00000  -0.00032  -0.00032  -2.09467
   D54        0.00005   0.00000   0.00000   0.00000   0.00000   0.00005
         Item               Value     Threshold  Converged?
 Maximum Force            0.143930     0.000450     NO 
 RMS     Force            0.025194     0.000300     NO 
 Maximum Displacement     0.210805     0.001800     NO 
 RMS     Displacement     0.045824     0.001200     NO 
 Predicted change in Energy=-6.563914D-02
 GradGradGradGradGradGradGradGradGradGradGradGradGradGradGradGradGradGrad

                          Input orientation:                          
 ---------------------------------------------------------------------
 Center     Atomic      Atomic             Coordinates (Angstroms)
 Number     Number       Type             X           Y           Z
 ---------------------------------------------------------------------
      1          6           0       -0.000686    0.000013    0.038926
      2          6           0        0.005625    0.000012    1.447979
      3          6           0        1.194730    0.000009    2.157236
      4          6           0        2.366383    0.000254    0.041221
      5          6           0       -2.105514   -0.000284    0.706170
      6          1           0       -3.183241   -0.000458    0.695311
      7          7           0        1.174873    0.000250   -0.660295
      8          7           0        2.369648    0.000137    1.417033
      9          7           0       -1.332931   -0.000197   -0.421589
     10          7           0       -1.351506   -0.000133    1.852879
     11          6           0        1.182566    0.000502   -2.129680
     12          1           0        0.678296   -0.877335   -2.489231
     13          1           0        0.678045    0.878320   -2.488925
     14          1           0        2.199445    0.000706   -2.468925
     15          6           0       -1.827257    0.000044    3.241053
     16          1           0       -1.465534   -0.875258    3.745938
     17          1           0       -1.465624    0.875534    3.745679
     18          1           0       -2.901858   -0.000010    3.240517
     19          6           0        3.650284    0.000161    2.138174
     20          1           0        3.710791    0.877196    2.754360
     21          1           0        3.710347   -0.876338    2.755161
     22          1           0        4.447874   -0.000359    1.422122
     23          8           0        3.532504    0.000525   -0.641536
     24          8           0        1.243638   -0.000165    3.510851
 ---------------------------------------------------------------------
                    Distance matrix (angstroms):
                    1          2          3          4          5
     1  C    0.000000
     2  C    1.409067   0.000000
     3  C    2.432335   1.384564   0.000000
     4  C    2.367070   2.748117   2.418737   0.000000
     5  C    2.208058   2.237675   3.605164   4.521064   0.000000
     6  H    3.249538   3.276488   4.615610   5.588037   1.077781
     7  N    1.367790   2.410802   2.817601   1.382686   3.553614
     8  N    2.741835   2.364226   1.388644   1.375816   4.531270
     9  N    1.409593   2.299352   3.611012   3.728152   1.367014
    10  N    2.261668   1.416244   2.564362   4.135796   1.372396
    11  C    2.470412   3.766276   4.286933   2.472698   4.342064
    12  H    2.760857   4.089480   4.756689   3.165910   4.327748
    13  H    2.760820   4.089351   4.756596   3.165932   4.327676
    14  H    3.336150   4.489431   4.734007   2.515692   5.349197
    15  C    3.686458   2.564092   3.210461   5.274991   2.550109
    16  H    4.080909   2.865488   3.219794   5.401392   3.227281
    17  H    4.080759   2.865403   3.219810   5.401240   3.227248
    18  H    4.320531   3.415648   4.237397   6.163592   2.656516
    19  C    4.211463   3.709435   2.455628   2.458783   5.931260
    20  H    4.681676   4.025461   2.730673   3.152393   6.228520
    21  H    4.681633   4.025131   2.730170   3.152796   6.228168
    22  H    4.658638   4.442324   3.335167   2.497897   6.592381
    23  O    3.598119   4.099385   3.646685   1.351294   5.796858
    24  O    3.688170   2.405850   1.354498   3.646763   4.368415
                    6          7          8          9         10
     6  H    0.000000
     7  N    4.564080   0.000000
     8  N    5.599595   2.396410   0.000000
     9  N    2.161276   2.519140   4.133960   0.000000
    10  N    2.166845   3.563515   3.746592   2.274544   0.000000
    11  C    5.200081   1.469405   3.740099   3.040608   4.720413
    12  H    5.081504   2.088480   4.346209   3.014887   4.872730
    13  H    5.081450   2.088476   4.346175   3.014912   4.872578
    14  H    6.243853   2.078675   3.889685   4.082801   5.593501
    15  C    2.884353   4.922733   4.576140   3.695849   1.467434
    16  H    3.608617   5.210869   4.571513   4.260469   2.088664
    17  H    3.608645   5.210658   4.571457   4.260356   2.088661
    18  H    2.560713   5.642347   5.577981   3.984038   2.080656
    19  C    6.984190   3.736186   1.469718   5.602216   5.009920
    20  H    7.248285   4.342785   2.087184   6.024583   5.216246
    21  H    7.247876   4.343084   2.087167   6.024452   5.215765
    22  H    7.665648   3.879303   2.078232   6.067700   5.815356
    23  O    6.847510   2.357706   2.364306   4.870404   5.484129
    24  O    5.246382   4.171713   2.377387   4.701361   3.079552
                   11         12         13         14         15
    11  C    0.000000
    12  H    1.074320   0.000000
    13  H    1.074320   1.755655   0.000000
    14  H    1.071975   1.756492   1.756492   0.000000
    15  C    6.156606   6.315357   6.315105   6.987000   0.000000
    16  H    6.504020   6.593431   6.822278   7.268006   1.073269
    17  H    6.503724   6.822246   6.592845   7.267693   1.073270
    18  H    6.746965   6.813018   6.812758   7.656437   1.074602
    19  C    4.929930   5.569164   5.569149   4.830145   5.587467
    20  H    5.569054   6.306318   6.057193   5.507732   5.628164
    21  H    5.569578   6.057803   6.306673   5.508458   5.627539
    22  H    4.824679   5.502498   5.502724   4.493961   6.533435
    23  O    2.781507   3.511569   3.511596   2.261946   6.618273
    24  O    5.640861   6.090157   6.090069   6.055682   3.082724
                   16         17         18         19         20
    16  H    0.000000
    17  H    1.750792   0.000000
    18  H    1.756285   1.756285   0.000000
    19  C    5.433494   5.433494   6.644225   0.000000
    20  H    5.554157   5.270482   6.688271   1.073563   0.000000
    21  H    5.269856   5.553454   6.687659   1.073560   1.753535
    22  H    6.413577   6.413701   7.571336   1.071859   1.757343
    23  O    6.708004   6.707800   7.514743   2.782205   3.511759
    24  O    2.856688   2.856937   4.154302   2.770593   2.725598
                   21         22         23         24
    21  H    0.000000
    22  H    1.757350   0.000000
    23  O    3.512559   2.257562   0.000000
    24  O    2.724592   3.824907   4.741437   0.000000
 Stoichiometry    C8H10N4O2
 Framework group  C1[X(C8H10N4O2)]
 Deg. of freedom    66
 Full point group                 C1      NOp   1
 Largest Abelian subgroup         C1      NOp   1
 Largest concise Abelian subgroup C1      NOp   1
                         Standard orientation:                         
 ---------------------------------------------------------------------
 Center     Atomic      Atomic             Coordinates (Angstroms)
 Number     Number       Type             X           Y           Z
 ---------------------------------------------------------------------
      1          6           0        0.316132   -1.128897   -0.000084
      2          6           0        0.900510    0.153278    0.000011
      3          6           0        0.117744    1.295334   -0.000032
      4          6           0       -1.832393   -0.135489   -0.000024
      5          6           0        2.506924   -1.404485   -0.000175
      6          1           0        3.481037   -1.865696   -0.000268
      7          7           0       -1.044202   -1.271524    0.000015
      8          7           0       -1.259170    1.115225   -0.000045
      9          7           0        1.333054   -2.105024   -0.000225
     10          7           0        2.302464   -0.047405   -0.000002
     11          6           0       -1.666563   -2.602620    0.000164
     12          1           0       -1.359138   -3.140281   -0.877660
     13          1           0       -1.358955   -3.140163    0.877995
     14          1           0       -2.732045   -2.484815    0.000267
     15          6           0        3.315848    1.013923    0.000308
     16          1           0        3.198906    1.623915   -0.874987
     17          1           0        3.198707    1.623588    0.875804
     18          1           0        4.291447    0.563396    0.000335
     19          6           0       -2.120077    2.306406   -0.000069
     20          1           0       -1.917050    2.891265    0.877005
     21          1           0       -1.916140    2.891860   -0.876530
     22          1           0       -3.144233    1.990203   -0.000699
     23          8           0       -3.177261   -0.267118    0.000111
     24          8           0        0.640223    2.545006   -0.000116
 ---------------------------------------------------------------------
 Rotational constants (GHZ):      1.0429042      0.6872732      0.4174503
 Standard basis: 6-31+G (6D, 7F)
 There are   202 symmetry adapted basis functions of A   symmetry.
 Integral buffers will be    262144 words long.
 Raffenetti 1 integral format.
 Two-electron integral symmetry is turned on.
   202 basis functions,   404 primitive gaussians,   202 cartesian basis functions
    51 alpha electrons       51 beta electrons
       nuclear repulsion energy       917.5507962574 Hartrees.
 NAtoms=   24 NActive=   24 NUniq=   24 SFac= 7.50D-01 NAtFMM=   80 NAOKFM=F Big=F
 One-electron integrals computed using PRISM.
 NBasis=   202 RedAO= T  NBF=   202
 NBsUse=   202 1.00D-06 NBFU=   202
 Initial guess read from the read-write file.
 B after Tr=     0.000000    0.000000    0.000000
         Rot=    1.000000    0.000000    0.000000    0.000000 Ang=   0.00 deg.
 Initial guess orbital symmetries:
       Occupied  (A) (A) (A) (A) (A) (A) (A) (A) (A) (A) (A) (A)
                 (A) (A) (A) (A) (A) (A) (A) (A) (A) (A) (A) (A)
                 (A) (A) (A) (A) (A) (A) (A) (A) (A) (A) (A) (A)
                 (A) (A) (A) (A) (A) (A) (A) (A) (A) (A) (A) (A)
                 (A) (A) (A)
       Virtual   (A) (A) (A) (A) (A) (A) (A) (A) (A) (A) (A) (A)
                 (A) (A) (A) (A) (A) (A) (A) (A) (A) (A) (A) (A)
                 (A) (A) (A) (A) (A) (A) (A) (A) (A) (A) (A) (A)
                 (A) (A) (A) (A) (A) (A) (A) (A) (A) (A) (A) (A)
                 (A) (A) (A) (A) (A) (A) (A) (A) (A) (A) (A) (A)
                 (A) (A) (A) (A) (A) (A) (A) (A) (A) (A) (A) (A)
                 (A) (A) (A) (A) (A) (A) (A) (A) (A) (A) (A) (A)
                 (A) (A) (A) (A) (A) (A) (A) (A) (A) (A) (A) (A)
                 (A) (A) (A) (A) (A) (A) (A) (A) (A) (A) (A) (A)
                 (A) (A) (A) (A) (A) (A) (A) (A) (A) (A) (A) (A)
                 (A) (A) (A) (A) (A) (A) (A) (A) (A) (A) (A) (A)
                 (A) (A) (A) (A) (A) (A) (A) (A) (A) (A) (A) (A)
                 (A) (A) (A) (A) (A) (A) (A)
 Harris functional with IExCor=  205 diagonalized for initial guess.
 ExpMin= 4.38D-02 ExpMax= 5.48D+03 ExpMxC= 8.25D+02 IAcc=2 IRadAn=         0 AccDes= 0.00D+00
 HarFok:  IExCor=  205 AccDes= 0.00D+00 IRadAn=         0 IDoV= 1
 ScaDFX=  1.000000  1.000000  1.000000  1.000000
 FoFCou: FMM=F IPFlag=           0 FMFlag=      100000 FMFlg1=           0
         NFxFlg=           0 DoJE=T BraDBF=F KetDBF=T FulRan=T
         Omega=  0.000000  0.000000  1.000000  0.000000  0.000000 ICntrl=     500 IOpCl=  0
         NMat0=    1 NMatS0=    1 NMatT0=    0 NMatD0=    1 NMtDS0=    0 NMtDT0=    0
         I1Cent=           4 NGrid=           0.
 Petite list used in FoFCou.
 Requested convergence on RMS density matrix=1.00D-08 within 128 cycles.
 Requested convergence on MAX density matrix=1.00D-06.
 Requested convergence on             energy=1.00D-06.
 No special actions if energy rises.
 Initial convergence to 1.0D-05 achieved.  Increase integral accuracy.
 SCF Done:  E(RHF) =  -675.991936062     A.U. after   17 cycles
             Convg  =    0.5177D-08             -V/T =  2.0013
 Calling FoFJK, ICntrl=      2127 FMM=F ISym2X=0 I1Cent= 0 IOpClX= 0 NMat=1 NMatS=1 NMatT=0.
 ***** Axes restored to original set *****
 -------------------------------------------------------------------
 Center     Atomic                   Forces (Hartrees/Bohr)
 Number     Number              X              Y              Z
 -------------------------------------------------------------------
      1        6          -0.046918537   -0.000001374    0.037395356
      2        6          -0.035282036   -0.000002356   -0.050130592
      3        6           0.023412955   -0.000016299    0.130986052
      4        6           0.092260457    0.000046252   -0.065713531
      5        6           0.050629307    0.000009618   -0.004048123
      6        1           0.009970802    0.000004036    0.000640537
      7        7           0.006837351   -0.000014659    0.013353368
      8        7          -0.025414996   -0.000009521   -0.012169917
      9        7           0.018323637    0.000005647    0.032200443
     10        7           0.003574051   -0.000003022   -0.029891886
     11        6           0.000391290   -0.000003071   -0.000017681
     12        1          -0.002749631   -0.003072616   -0.000798757
     13        1          -0.002750779    0.003072388   -0.000796871
     14        1           0.002273709   -0.000000042    0.002030691
     15        6           0.001544642   -0.000007777   -0.005538701
     16        1           0.001733015   -0.002018928    0.002074545
     17        1           0.001732503    0.002020784    0.002073358
     18        1          -0.004069361   -0.000000279   -0.001933649
     19        6           0.003122213   -0.000006131    0.000001401
     20        1          -0.001223774    0.002169295    0.002986076
     21        1          -0.001230511   -0.002162889    0.002986911
     22        1          -0.000999767    0.000001630   -0.003342687
     23        8          -0.095794626   -0.000028860    0.056769629
     24        8           0.000628086    0.000018173   -0.109115971
 -------------------------------------------------------------------
 Cartesian Forces:  Max     0.130986052 RMS     0.030810824

 GradGradGradGradGradGradGradGradGradGradGradGradGradGradGradGradGradGrad
 Berny optimization.
 Using GEDIIS/GDIIS optimizer.
 Internal  Forces:  Max     0.111351044 RMS     0.016945289
 Search for a local minimum.
 Step number   2 out of a maximum of  132
 All quantities printed in internal units (Hartrees-Bohrs-Radians)
 Mixed Optimization -- RFO/linear search
 Update second derivatives using D2CorX and points    1    2
 DE= -6.93D-02 DEPred=-6.56D-02 R= 1.06D+00
 SS=  1.41D+00  RLast= 3.00D-01 DXNew= 5.0454D-01 9.0000D-01
 Trust test= 1.06D+00 RLast= 3.00D-01 DXMaxT set to 5.05D-01
 Use linear search instead of GDIIS.
     Eigenvalues ---    0.00766   0.00766   0.00766   0.01040   0.01274
     Eigenvalues ---    0.01335   0.01351   0.01501   0.01592   0.01618
     Eigenvalues ---    0.01660   0.01731   0.01744   0.01924   0.02051
     Eigenvalues ---    0.07524   0.07562   0.07583   0.07588   0.07625
     Eigenvalues ---    0.07631   0.15990   0.16000   0.16000   0.16000
     Eigenvalues ---    0.16000   0.16000   0.16000   0.16000   0.16000
     Eigenvalues ---    0.16057   0.21562   0.24568   0.25000   0.25000
     Eigenvalues ---    0.25000   0.25000   0.25000   0.25000   0.25000
     Eigenvalues ---    0.25831   0.28104   0.34810   0.34987   0.35381
     Eigenvalues ---    0.35740   0.35742   0.35752   0.37230   0.37230
     Eigenvalues ---    0.37230   0.37230   0.37230   0.37230   0.37230
     Eigenvalues ---    0.37231   0.37233   0.38565   0.40993   0.42321
     Eigenvalues ---    0.42958   0.43666   0.46155   0.46716   0.47695
     Eigenvalues ---    0.573051000.000001000.000001000.000001000.00000
     Eigenvalues --- 1000.000001000.000001000.000001000.000001000.00000
     Eigenvalues --- 1000.000001000.000001000.000001000.000001000.00000
     Eigenvalues --- 1000.000001000.000001000.000001000.000001000.00000
     Eigenvalues --- 1000.000001000.000001000.000001000.000001000.00000
     Eigenvalues --- 1000.000001000.000001000.000001000.000001000.00000
     Eigenvalues --- 1000.000001000.000001000.000001000.000001000.00000
     Eigenvalues --- 1000.000001000.000001000.000001000.000001000.00000
     Eigenvalues --- 1000.000001000.000001000.000001000.000001000.00000
     Eigenvalues --- 1000.000001000.000001000.000001000.000001000.00000
     Eigenvalues --- 1000.000001000.000001000.000001000.000001000.00000
     Eigenvalues --- 1000.000001000.00000
 RFO step:  Lambda=-2.61959654D-02 EMin= 7.65814501D-03
 Quartic linear search produced a step of  1.20506.
 Iteration  1 RMS(Cart)=  0.05035461 RMS(Int)=  0.01662077
 Iteration  2 RMS(Cart)=  0.01656558 RMS(Int)=  0.00011234
 Iteration  3 RMS(Cart)=  0.00002233 RMS(Int)=  0.00011138
 Iteration  4 RMS(Cart)=  0.00000000 RMS(Int)=  0.00011138
 Variable       Old X    -DE/DX   Delta X   Delta X   Delta X     New X
                                 (Linear)    (Quad)   (Total)
    R1        2.66275  -0.03978  -0.08360  -0.01502  -0.09874   2.56401
    R2        2.58475  -0.00724  -0.02843   0.02775  -0.00068   2.58407
    R3        2.66374  -0.04835  -0.10947  -0.00942  -0.11857   2.54517
    R4        2.61645   0.01553   0.00964   0.04674   0.05625   2.67270
    R5        2.67631  -0.03403  -0.09396   0.03693  -0.05735   2.61897
    R6        2.62416  -0.01177  -0.03704   0.02941  -0.00763   2.61653
    R7        2.55963  -0.10902  -0.17194  -0.15618  -0.32812   2.23151
    R8        2.61290  -0.01826  -0.05063   0.02516  -0.02534   2.58756
    R9        2.59992  -0.00540  -0.03222   0.04614   0.01404   2.61395
   R10        2.55358  -0.11135  -0.17923  -0.15133  -0.33056   2.22302
   R11        2.03671  -0.00998  -0.02690   0.00666  -0.02025   2.01646
   R12        2.58328  -0.04209  -0.09145   0.00357  -0.08770   2.49558
   R13        2.59345  -0.03740  -0.08036   0.00288  -0.07766   2.51579
   R14        2.77677  -0.00043  -0.00136   0.00077  -0.00058   2.77619
   R15        2.77737   0.00100  -0.00064   0.00722   0.00658   2.78395
[...]
 37395,-0.00150072,-0.00089842,-0.00209457,0.00015246,0.00039667,0.0001
 7470,0.00004740,0.00014893,-0.00027867,0.00024043,-0.00002188,-0.00055
 152,-0.00174055,0.00047088,0.00168517,0.00678896,-0.01476398,0.0164207
 7,-0.00000032,0.00002124,0.00006679,0.00000647,-0.00001616,-0.00002667
 ,0.00000421,0.00001091,-0.00002385,-0.00000086,-0.00000303,-0.00000461
 ,-0.09397401,0.08269484,-0.04928308,0.09289781,0.00038543,-0.00008532,
 0.00064239,-0.00045287,0.00001225,0.00012370,-0.00012650,-0.00003758,0
 .00238484,0.00026948,-0.00002339,0.00043283,-0.00001178,0.00011800,-0.
 00183557,-0.00006598,0.00004096,-0.00001694,-0.00022971,0.00001368,-0.
 00013829,0.00033489,-0.00004327,-0.00071624,-0.00082456,-0.00047230,0.
 00005606,-0.00176554,0.00859864,-0.00253327,-0.00002255,-0.00000782,0.
 00000835,0.00000631,-0.00000338,-0.00001719,0.00000517,0.00000464,-0.0
 0001840,0.00000034,-0.00000031,0.00000568,0.07848310,-0.26339739,0.116
 09488,-0.08778585,0.27719308,-0.00222377,-0.00003435,-0.00190367,-0.00
 098763,0.00005793,0.00208295,0.00027663,0.00052672,-0.00127905,-0.0004
 0562,0.00008378,-0.00032343,0.00434809,0.00327518,0.00207048,-0.000118
 16,0.00025633,-0.00001093,0.00059526,-0.00018202,0.00010135,0.00001670
 ,-0.00005236,0.00026486,0.00233910,-0.00167021,-0.00262840,-0.01169602
 ,0.02924664,-0.03512619,0.00003610,-0.00002798,0.00009021,-0.00003717,
 0.00002054,0.00002203,-0.00002635,-0.00001846,0.00001586,0.00001268,0.
 00000791,-0.00000108,-0.04161520,0.10856514,-0.11912368,0.04488933,-0.
 12544492,0.14368766,0.00124708,-0.00007577,0.00166678,0.00031964,0.000
 39702,-0.00108525,0.00007187,0.00025767,0.00221329,-0.00002532,0.00001
 906,0.00037393,-0.00150127,0.00089890,-0.00209472,0.00015253,-0.000396
 61,0.00017455,0.00004754,-0.00014893,-0.00027879,0.00024046,0.00002174
 ,-0.00055157,-0.00174020,-0.00047213,0.00168436,0.00678182,0.01475950,
 0.01642267,-0.00000029,-0.00002124,0.00006683,0.00000421,-0.00001091,-
 0.00002386,0.00000646,0.00001615,-0.00002667,-0.00000086,0.00000302,-0
 .00000461,-0.09389638,-0.08260302,-0.04924658,0.00538313,0.01217895,0.
 00542677,0.09281326,-0.00038431,-0.00008497,-0.00064115,0.00045291,0.0
 0001251,-0.00012478,0.00012664,-0.00003652,-0.00238336,-0.00026944,-0.
 00002330,-0.00043266,0.00000989,0.00011874,0.00183417,0.00006610,0.000
 04079,0.00001703,0.00022974,0.00001360,0.00013807,-0.00033480,-0.00004
 323,0.00071592,0.00082337,-0.00047300,-0.00005472,0.00176796,0.0086126
 5,0.00255145,0.00002255,-0.00000782,-0.00000831,-0.00000516,0.00000463
 ,0.00001838,-0.00000629,-0.00000336,0.00001717,-0.00000035,-0.00000030
 ,-0.00000568,-0.07839356,-0.26342237,-0.11615236,-0.01216590,-0.024987
 11,-0.01504690,0.08768803,0.27721887,-0.00222299,0.00003513,-0.0019040
 0,-0.00098600,-0.00005951,0.00208233,0.00027653,-0.00052606,-0.0012795
 5,-0.00040548,-0.00008360,-0.00032333,0.00434970,-0.00327352,0.0020690
 4,-0.00011809,-0.00025642,-0.00001110,0.00059493,0.00018222,0.00010143
 ,0.00001672,0.00005231,0.00026486,0.00233810,0.00167133,-0.00262628,-0
 .01168406,-0.02924228,-0.03513080,0.00003606,0.00002806,0.00009018,-0.
 00002636,0.00001844,0.00001587,-0.00003716,-0.00002055,0.00002204,0.00
 001268,-0.00000791,-0.00000107,-0.04158123,-0.10861913,-0.11917575,0.0
 0541688,0.01504130,0.01050625,0.04485009,0.12549763,0.14374448,-0.0001
 5754,-0.00000066,-0.00022677,0.00392422,0.00000112,0.00127688,0.000389
 25,0.00000003,-0.00083957,0.00049067,-0.00000007,-0.00013758,0.0009346
 5,0.00000076,-0.00276830,0.00075003,-0.00000012,0.00066335,-0.00037770
 ,-0.00000005,0.00056753,-0.00033905,0.00000004,0.00013061,-0.00034831,
 0.00000006,0.00063503,-0.01690045,-0.00000415,0.00109447,-0.00011899,-
 0.00000002,-0.00020200,0.00001976,0.00001081,0.00001445,0.00001976,-0.
 00001080,0.00001446,-0.00000586,0.,0.00003377,-0.34964823,-0.00006700,
 -0.01674479,-0.00986682,-0.00166892,-0.00079790,-0.00985193,0.00166332
 ,-0.00079709,0.38201120,-0.00000033,0.00046872,0.00000008,0.00000124,0
 .00085570,0.00000092,0.00000016,-0.00033925,0.00000027,0.00000019,-0.0
 0000989,0.00000005,-0.00000008,0.00073040,-0.00000058,0.00000016,0.000
 37644,0.00000033,-0.00000012,-0.00003388,0.00000022,-0.00000005,-0.000
 07470,-0.00000011,0.00000002,-0.00040257,-0.00000012,-0.00000986,-0.00
 175255,0.00000049,-0.00000006,0.00001089,-0.00000005,-0.00000124,-0.00
 000087,-0.00000113,0.00000125,-0.00000088,0.00000113,0.,0.00000111,0.0
 0000002,-0.00006523,-0.06071868,-0.00000341,0.03226630,0.00260221,0.00
 074254,-0.03226802,0.00258725,-0.00074240,0.00007583,0.05511076,0.0017
 0315,0.00000071,-0.00083596,-0.00291568,-0.00000050,-0.00525101,-0.000
 08926,0.00000018,-0.00236754,-0.00047358,0.00000002,-0.00036966,0.0016
 0584,0.00000026,0.00231414,-0.00048564,0.00000002,-0.00033660,0.000118
 18,-0.00000001,-0.00058746,-0.00013975,0.00000002,0.00073372,0.0003356
 1,-0.00000035,0.00046267,0.05208427,0.00001389,-0.00720390,0.00018552,
 0.,0.00008670,-0.00000691,-0.00001032,-0.00000298,-0.00000692,0.000010
 32,-0.00000299,-0.00000720,0.,-0.00006373,-0.03241937,-0.00000753,-0.0
 6265600,-0.01803267,-0.00233777,0.00081781,-0.01804127,0.00232960,0.00
 081806,0.01740632,0.00000186,0.07288390,-0.00255380,-0.00000118,0.0010
 1490,0.00029892,0.00000248,0.00237162,-0.04605302,0.00000084,-0.001330
 82,0.01384323,-0.00001020,-0.02299981,-0.00011867,-0.00000003,0.000546
 41,0.00003410,-0.00000007,-0.00006231,0.00275995,0.00000317,0.00752403
 ,-0.18526059,0.00001418,-0.03423410,0.00121985,-0.00000002,-0.00017831
 ,0.00042396,0.00000025,-0.00088421,0.00094247,0.00000044,-0.00085566,0
 .00009976,0.00002880,0.00035680,0.00009982,-0.00002878,0.00035650,-0.0
 0012815,0.00000005,-0.00014007,-0.00005700,0.00000004,0.00027500,-0.00
 004467,-0.00005913,-0.00002210,-0.00004467,0.00005909,-0.00002212,0.00
 008621,0.,0.00002898,0.56410837,0.00000041,-0.00120769,-0.00000011,-0.
 00000104,0.00482255,0.00000011,0.00001025,0.00649527,-0.00000419,0.000
 00197,-0.00091155,0.00001345,0.00000012,-0.00018604,-0.00000071,0.0000
 0006,-0.00016724,0.00000002,-0.00000168,0.00450137,-0.00000135,0.00000
 469,-0.08523570,0.00000090,-0.00000019,-0.00000698,0.00000033,0.000000
 37,0.00063562,0.00000030,0.00000005,0.00102450,-0.00000024,-0.00001562
 ,-0.00003331,0.00020216,0.00001569,-0.00003332,-0.00020203,0.00000009,
 0.00000341,-0.00000004,-0.00000027,0.00019249,0.00000006,0.00000154,-0
 .00002890,0.00000639,-0.00000152,-0.00002896,-0.00000638,0.00000012,-0
 .00002646,0.00000002,0.00001735,0.65981530,0.00088772,-0.00000030,-0.0
 0162560,0.00546462,0.00000045,-0.00456138,0.01728584,-0.00000613,0.024
 03256,-0.03789380,0.00000941,-0.02686195,0.00064451,0.00000020,-0.0006
 3549,0.00006700,-0.00000011,0.00014627,0.00127631,-0.00000040,-0.00281
 755,-0.03617229,0.00000728,-0.14771987,-0.00000866,0.00000027,0.000378
 52,0.00117130,0.00000047,0.00163851,-0.00066600,-0.00000017,0.00004995
 ,0.00000168,0.00004406,-0.00013293,0.00000177,-0.00004406,-0.00013286,
 -0.00006907,0.00000006,0.00002927,-0.00017472,-0.00000021,0.00053014,-
 0.00006741,-0.00003949,-0.00000834,-0.00006744,0.00003950,-0.00000830,
 0.00012248,0.00000005,-0.00002157,-0.09752627,0.00000506,0.67641537,0.
 00085904,-0.00016617,-0.00043276,0.00023616,0.00095068,0.00030587,0.00
 102635,-0.00101525,-0.00560890,-0.00596178,-0.00195594,0.00347064,0.00
 001819,-0.00005775,-0.00027167,-0.00000748,-0.00003166,0.00000430,-0.0
 0043976,0.00112226,-0.00112423,-0.01501621,-0.03030935,-0.03117377,-0.
 00035681,-0.00005330,0.00011242,-0.00002182,0.00013098,0.00019676,-0.0
 0020643,0.00017739,0.00011576,-0.00002319,-0.00000141,-0.00001824,0.00
 000315,-0.00001052,-0.00012383,0.00002148,0.00001477,0.00001837,0.0000
 1396,0.00001451,-0.00008179,-0.00001559,-0.00001366,0.00001125,-0.0000
 2346,0.00000898,0.00002098,0.00000185,-0.00000161,0.00001703,-0.057833
 02,-0.00219451,0.00083479,0.06828647,0.00031770,0.00002516,-0.00029208
 ,0.00004831,-0.00052765,0.00054835,0.00008733,0.00007344,-0.00316458,0
 .00115754,-0.00044664,0.00112285,0.00005084,0.00000800,0.00009574,-0.0
 0000417,-0.00000003,-0.00000440,-0.00051244,-0.00023144,0.00003787,-0.
 00127407,0.00896168,0.00279229,0.00000384,0.00003814,0.00001305,-0.000
 20608,0.00003075,-0.00001899,0.00002232,-0.00002356,0.00001863,0.00001
 076,-0.00000143,-0.00000235,0.00000093,0.00000368,0.00000676,0.0000078
 8,-0.00000660,0.00002164,0.00000761,-0.00001971,-0.00002759,-0.0000059
 8,-0.00000863,-0.00000309,-0.00000180,0.00001328,-0.00000375,0.0000017
 6,0.00000197,0.00000774,-0.01123840,-0.26054979,-0.13789698,0.00930015
 ,0.27537127,0.00045747,-0.00011610,-0.00011392,-0.00018230,-0.00015556
 ,-0.00003799,0.00188707,-0.00004434,-0.00113888,-0.00204568,-0.0026213
 6,0.00173316,-0.00001340,-0.00002120,0.00004715,-0.00000929,-0.0000159
 8,0.00000379,-0.00028877,0.00033620,-0.00111548,-0.00787729,-0.0124897
 8,-0.01557317,-0.00014010,0.00007083,-0.00003323,-0.00014095,0.0001015
 8,0.00001402,-0.00018825,0.00008906,0.00021659,-0.00001854,0.00000187,
 -0.00005394,-0.00006258,-0.00000251,-0.00011212,0.00000534,-0.00002159
 ,0.00003014,0.00000316,-0.00001336,-0.00005165,0.00001020,0.00001817,0
 .00000714,0.00001532,-0.00001349,0.00001269,-0.00001842,-0.00000088,-0
 .00000172,-0.00584552,-0.13607295,-0.15286037,0.01532242,0.15212992,0.
 16708191,0.00085954,0.00016612,-0.00043391,0.00023815,-0.00095102,0.00
 030607,0.00102456,0.00101745,-0.00560852,-0.00596848,0.00196098,0.0034
 6763,0.00001838,0.00005780,-0.00027161,-0.00000750,0.00003162,0.000004
 32,-0.00043922,-0.00112336,-0.00112440,-0.01498090,0.03030122,-0.03119
 494,-0.00035659,0.00005343,0.00011248,-0.00002198,-0.00013071,0.000197
 08,-0.00020679,-0.00017740,0.00011577,0.00000316,0.00001052,-0.0001238
 9,-0.00002325,0.00000143,-0.00001828,0.00002142,-0.00001480,0.00001835
 ,0.00001400,-0.00001452,-0.00008176,-0.00002351,-0.00000899,0.00002097
 ,-0.00001563,0.00001367,0.00001125,0.00000191,0.00000161,0.00001705,-0
 .05782213,0.00202490,0.00094405,0.00186471,0.00014588,0.00162486,0.068
 26916,-0.00031828,0.00002521,0.00029287,-0.00004905,-0.00052715,-0.000
 54929,-0.00008670,0.00007551,0.00316981,-0.00115578,-0.00044712,-0.001
 12596,-0.00005100,0.00000802,-0.00009569,0.00000416,-0.00000001,0.0000
 0440,0.00051313,-0.00023008,-0.00003817,0.00128393,0.00893978,-0.00278
 339,-0.00000391,0.00003788,-0.00001314,0.00020620,0.00003086,0.0000188
 6,-0.00002241,-0.00002351,-0.00001849,-0.00000102,0.00000364,-0.000006
 72,-0.00001072,-0.00000143,0.00000227,-0.00000789,-0.00000653,-0.00002
 162,-0.00000760,-0.00001960,0.00002752,0.00000180,0.00001330,0.0000037
 6,0.00000603,-0.00000866,0.00000308,-0.00000179,0.00000196,-0.00000776
 ,0.01107102,-0.26035485,0.13799762,-0.00016707,-0.02573721,0.01938426,
 -0.00911263,0.27515739,0.00045764,0.00011631,-0.00011452,-0.00018206,0
 .00015603,-0.00003774,0.00188654,0.00004653,-0.00113960,-0.00204294,0.
 00261993,0.00173015,-0.00001335,0.00002119,0.00004737,-0.00000930,0.00
 001599,0.00000380,-0.00028912,-0.00033530,-0.00111535,-0.00785793,0.01
 247934,-0.01558432,-0.00014000,-0.00007097,-0.00003323,-0.00014121,-0.
 00010161,0.00001403,-0.00018830,-0.00008915,0.00021662,-0.00006259,0.0
 0000247,-0.00011212,-0.00001853,-0.00000186,-0.00005396,0.00000533,0.0
 0002158,0.00003021,0.00000313,0.00001343,-0.00005163,0.00001530,0.0000
 1345,0.00001272,0.00001019,-0.00001816,0.00000715,-0.00001841,0.000000
 86,-0.00000170,-0.00575155,0.13617944,-0.15308872,0.00160859,-0.019355
 01,0.01329785,0.01520260,-0.15224115,0.16733964,-0.00033364,-0.0000000
 5,0.00069224,-0.00139208,-0.00000059,0.00117621,-0.00265975,0.00000303
 ,-0.00660668,-0.00548220,0.00000315,0.00403261,-0.00020932,0.,-0.00004
 178,-0.00000952,0.00000006,-0.00004293,0.00137587,0.00000014,0.0004000
 2,-0.03541856,0.00001770,0.02199445,-0.00002611,-0.00000003,-0.0000727
 7,0.00003812,-0.00000009,-0.00045528,0.00008735,-0.00000004,-0.0000409
 8,0.00001816,0.00001709,0.00002299,0.00001820,-0.00001709,0.00002302,0
 .00001794,0.00000002,-0.00009109,0.00003146,0.,-0.00007545,0.00000692,
 0.00000758,0.00000066,0.00000690,-0.00000759,0.00000066,-0.00001520,0.
 ,0.00000703,-0.22036223,0.00012398,0.14632308,0.00467660,0.00026428,-0
 .00243168,0.00465699,-0.00026902,-0.00241565,0.24888427,0.00000033,-0.
 00004060,-0.00000025,0.00000035,0.00035646,-0.00000008,-0.00000109,-0.
 00025500,0.00000282,0.00000522,0.00241790,-0.00000185,0.00000009,-0.00
 002145,0.00000016,0.,-0.00001253,0.,-0.00000131,0.00010726,-0.00000031
 ,0.00000448,-0.00244060,-0.00000061,-0.00000007,0.00000440,-0.00000007
 ,-0.00000028,0.00004644,0.00000008,0.,0.00002021,0.00000007,-0.0000251
 6,-0.00000772,0.00000930,0.00002513,-0.00000769,-0.00000937,-0.0000000
 1,0.00004995,0.00000006,0.00000001,0.00000053,-0.00000004,0.00000280,-
 0.00000073,0.00000055,-0.00000278,-0.00000074,-0.00000055,0.,0.0000030
 4,0.,0.00012924,-0.06275146,-0.00011802,0.02508721,0.00243799,-0.02173
 462,-0.02507737,0.00247735,0.02172072,-0.00013984,0.05849186,-0.000299
 99,0.00000016,0.00058746,-0.00081436,-0.00000114,0.00106923,-0.0033576
 7,0.00000064,-0.00513685,-0.00428801,0.00000074,0.00074381,-0.00008862
 ,0.00000011,0.00003350,0.00000252,0.00000002,-0.00003828,0.00188065,-0
 .00000024,0.00061272,-0.02282236,0.00001709,0.01445286,0.00011885,-0.0
 0000002,-0.00010036,-0.00004345,0.00000001,-0.00041101,0.00004529,0.,-
 0.00022224,-0.00000101,0.00002145,0.00004783,-0.00000103,-0.00002144,0
 .00004783,-0.00002225,0.,-0.00003317,0.00000122,0.00000002,-0.00000835
 ,0.00000150,-0.00000194,-0.00000601,0.00000150,0.00000195,-0.00000602,
 0.00000217,0.,0.00000665,0.16605963,-0.00012721,-0.20808330,0.01382697
 ,0.00249445,-0.01132738,0.01384249,-0.00251823,-0.01134016,-0.16403961
 ,0.00013327,0.22548427,0.00791018,0.00000512,-0.01405216,0.00291335,0.
 00000482,0.00144747,0.00373871,0.00000057,-0.00956259,-0.49234989,0.00
 012254,0.22056917,-0.00075778,-0.00000167,0.00391939,-0.00026221,-0.00
 000025,0.00037145,-0.11250286,0.00001824,0.01112870,-0.00782479,0.0000
 1243,0.04974679,-0.00229386,0.00000112,0.00109159,-0.00759574,-0.00000
 184,0.00148999,-0.00123268,0.00000074,0.00977890,-0.00029209,-0.000256
 61,-0.00151796,-0.00029283,0.00025609,-0.00151721,-0.00299000,-0.00000
 001,-0.00276152,0.00057235,0.00000037,-0.00218521,0.00010909,-0.000060
 52,0.00022215,0.00010907,0.00006052,0.00022207,-0.00029795,-0.00000009
 ,0.00013478,-0.01109158,0.00000631,-0.00534656,0.00242274,-0.00020398,
 -0.00015837,0.00242425,0.00020195,-0.00016133,0.00451729,-0.00000402,-
 0.00169770,0.61397565,-0.00000035,0.00591079,0.00000182,-0.00000015,-0
 .00112864,0.00000055,-0.00000386,0.00623668,0.00000247,0.00014585,-0.0
 9573550,-0.00008382,0.00000027,-0.00066261,-0.00000200,0.00000013,-0.0
 0017084,-0.00000008,0.00000901,0.02443377,0.00000138,0.00000627,0.0239
 5212,-0.00001011,-0.00000093,0.00075775,0.00000034,0.00000304,0.000041
 91,0.,0.00000148,-0.00116603,-0.00000405,0.00096466,-0.00001999,-0.000
 45940,-0.00096497,-0.00002021,0.00046120,-0.00000031,-0.00162669,0.000
 00063,-0.00000020,0.00001683,0.00000070,0.00000065,-0.00000018,-0.0000
 1189,-0.00000074,-0.00000018,0.00001174,0.00000011,0.00000189,-0.00000
 003,0.00000655,-0.00050800,0.00000098,-0.00097065,-0.00001109,0.000765
 47,0.00096745,-0.00001217,-0.00076386,-0.00000297,-0.00165415,0.000000
 40,-0.00016052,0.04253416,0.00004182,-0.00000018,-0.00827471,0.0055963
 1,-0.00000008,0.00484630,-0.02480178,-0.00000130,0.00224582,0.21860164
 ,-0.00007279,-0.23831902,0.00153566,0.00000097,-0.00159435,-0.00001565
 ,-0.00000022,0.00008461,-0.00827155,0.00000064,0.03129262,0.07187101,-
 0.00001799,-0.07520803,-0.00188106,-0.00000041,0.00152464,0.00003124,-
 0.00000046,0.00184413,0.00044565,0.00000242,-0.00881736,-0.00136768,-0
 .00023178,0.00181820,-0.00136944,0.00023104,0.00181875,-0.00501105,-0.
 00000066,0.00232747,-0.00003630,-0.00000008,0.00039988,-0.00017582,-0.
 00011668,0.00000884,-0.00017582,0.00011662,0.00000885,0.00016380,0.000
 00002,0.00007471,0.00321270,0.00000405,-0.00030076,0.00038645,-0.00026
 036,-0.00108933,0.00038891,0.00025752,-0.00109046,0.00143136,-0.000000
 91,-0.00688865,-0.26691464,0.00008935,0.30017812,-0.01238491,0.0000013
 8,0.00819251,0.00389646,0.00000207,-0.05542865,-0.11698989,0.00001208,
 -0.05950115,-0.01362198,0.00000215,-0.01234099,0.00000499,0.00000058,-
 0.00297496,0.00008450,0.00000052,0.00016120,0.01034671,0.00000162,0.00
 035022,0.00767121,-0.00000843,0.06598127,-0.00218957,-0.00000112,-0.00
 278608,0.00767637,0.00000042,0.00373960,0.00072874,-0.00000002,0.00036
 131,-0.00011550,0.00006930,0.00014420,-0.00011544,-0.00006936,0.000144
 20,-0.00006251,0.00000004,-0.00035278,-0.00219715,-0.00000033,0.001430
 34,-0.00008480,0.00142529,-0.00026575,-0.00008396,-0.00142537,-0.00026
 606,-0.00070146,-0.00000005,-0.00102550,-0.00254709,0.00000691,0.00296
 707,0.00047484,0.00201978,0.00009528,0.00046974,-0.00202336,0.00010295
 ,0.00157254,-0.00000292,0.00169326,0.00109158,0.00000020,0.00631424,0.
 11707657,-0.00000032,0.00571496,-0.00000341,0.00000030,0.02439180,0.00
 000589,0.00001159,-0.08765140,0.00009303,-0.00000015,0.00666867,-0.000
 00325,0.00000052,-0.00032937,0.00000087,0.00000011,0.00002835,0.000000
 02,-0.00000033,-0.00081136,0.00000242,-0.00000486,0.02147093,0.0000089
 7,0.00000081,-0.00262317,-0.00000131,0.00000196,-0.00117823,-0.0000005
 9,0.00000010,-0.00029966,-0.00000035,0.00005516,0.00002683,-0.00006078
 ,-0.00005525,0.00002675,0.00006105,-0.00000004,-0.00002528,-0.00000002
 ,-0.00000030,-0.00185932,0.00000116,0.00024310,0.00049954,-0.00030124,
 -0.00024262,0.00049820,0.00030082,-0.00000037,0.00060739,-0.00000038,0
 .00000430,-0.00546027,0.00000046,0.00014194,0.00059843,0.00042634,-0.0
 0014329,0.00059744,-0.00043020,0.00000030,0.00077929,-0.00000007,-0.00
 000127,-0.00116964,0.00000128,-0.00001139,0.03949912,-0.00467829,0.000
 00190,0.02336464,-0.03032310,0.00001037,-0.06865090,-0.05352789,0.0000
 8143,-0.64051605,0.00018893,-0.00000011,0.01623961,-0.00383957,0.00000
 074,-0.01121649,-0.00017176,0.00000121,0.00020106,0.00887092,0.0000021
 4,-0.01167901,0.04452908,0.00001010,-0.08513926,-0.00929007,-0.0000048
 7,0.00402807,0.00707456,-0.00000048,0.00591186,-0.00012367,-0.00000026
 ,0.00359423,-0.00022567,-0.00019948,-0.00070479,-0.00022572,0.00019936
 ,-0.00070473,0.00016899,-0.00000005,-0.00014635,0.00126755,0.00000147,
 -0.00550167,-0.00130904,-0.00160496,0.00072262,-0.00130969,0.00160406,
 0.00072297,0.00042551,-0.00000016,0.00150444,-0.01189371,0.00000295,-0
 .00436161,0.00258259,0.00173987,0.00106472,0.00258342,-0.00174236,0.00
 106400,0.00020958,-0.00000036,0.00051564,0.00575279,-0.00000180,-0.006
 89027,0.04326426,-0.00010071,0.77657729||-0.00002176,-0.00006684,0.000
 02416,-0.00002415,0.00001507,-0.00008323,-0.00001038,0.00006377,0.0000
 5698,0.00003720,0.00012243,-0.00002575,0.00004551,-0.00006133,0.000006
 09,0.00000590,0.00000074,-0.00000144,-0.00001509,-0.00004414,-0.000008
 15,-0.00001798,-0.00004795,0.00000189,0.00002352,0.00008811,0.00007933
 ,-0.00003162,0.00000447,-0.00002174,0.00000066,-0.00000537,-0.00000244
 ,-0.00000043,0.00000142,-0.00000116,0.00000160,-0.00000045,0.00000084,
 0.00000086,0.00000241,0.00000038,-0.00000620,0.00000262,-0.00000347,0.
 00000182,0.00000035,-0.00000487,0.00000167,-0.00000089,-0.00000356,-0.
 00000293,-0.00000052,0.00000086,0.00000891,-0.00000655,0.00000358,0.00
 000249,-0.00000127,0.00000062,0.00000515,0.00000214,0.00000355,0.00000
 177,0.00000092,0.00000281,-0.00002382,-0.00004691,0.00001864,0.0000173
 2,-0.00002222,-0.00004393|||@


 THERE IS NO SCIENCE WITHOUT FANCY, NOR ART WITHOUT FACTS.
     -- VLADIMIR NABAKOV
 Job cpu time:  0 days  0 hours 13 minutes 45.0 seconds.
 File lengths (MBytes):  RWF=    131 Int=      0 D2E=      0 Chk=      4 Scr=      1
 Normal termination of Gaussian 09 at Fri Oct 23 14:36:03 2020.
