 Entering Link 1 = C:\G09W\l1.exe PID=      9120.
  
 Copyright (c) 1988,1990,1992,1993,1995,1998,2003,2009, Gaussian, Inc.
                  All Rights Reserved.
  
 This is part of the Gaussian(R) 09 program.  It is based on
 the Gaussian(R) 03 system (copyright 2003, Gaussian, Inc.),
 the Gaussian(R) 98 system (copyright 1998, Gaussian, Inc.),
 the Gaussian(R) 94 system (copyright 1995, Gaussian, Inc.),
 the Gaussian 92(TM) system (copyright 1992, Gaussian, Inc.),
 the Gaussian 90(TM) system (copyright 1990, Gaussian, Inc.),
 the Gaussian 88(TM) system (copyright 1988, Gaussian, Inc.),
 the Gaussian 86(TM) system (copyright 1986, Carnegie Mellon
 University), and the Gaussian 82(TM) system (copyright 1983,
 Carnegie Mellon University). Gaussian is a federally registered
 trademark of Gaussian, Inc.
  
 This software contains proprietary and confidential information,
 including trade secrets, belonging to Gaussian, Inc.
  
 This software is provided under written license and may be
 used, copied, transmitted, or stored only in accord with that
 written license.
  
 The following legend is applicable only to US Government
 contracts under FAR:
  
                    RESTRICTED RIGHTS LEGEND
  
 Use, reproduction and disclosure by the US Government is
 subject to restrictions as set forth in subparagraphs (a)
 and (c) of the Commercial Computer Software - Restricted
 Rights clause in FAR 52.227-19.
  
 Gaussian, Inc.
 340 Quinnipiac St., Bldg. 40, Wallingford CT 06492
  
  
 ---------------------------------------------------------------
 Warning -- This program may not be used in any manner that
 competes with the business of Gaussian, Inc. or will provide
 assistance to any competitor of Gaussian, Inc.  The licensee
 of this program is prohibited from giving any competitor of
 Gaussian, Inc. access to this program.  By using this program,
 the user acknowledges that Gaussian, Inc. is engaged in the
 business of creating and licensing software in the field of
 computational chemistry and represents and warrants to the
 licensee that it is not a competitor of Gaussian, Inc. and that
 it will not use this program in any manner prohibited above.
 ---------------------------------------------------------------
  

 Cite this work as:
 Gaussian 09, Revision A.02,
 M. J. Frisch, G. W. Trucks, H. B. Schlegel, G. E. Scuseria, 
 M. A. Robb, J. R. Cheeseman, G. Scalmani, V. Barone, B. Mennucci, 
 G. A. Petersson, H. Nakatsuji, M. Caricato, X. Li, H. P. Hratchian, 
 A. F. Izmaylov, J. Bloino, G. Zheng, J. L. Sonnenberg, M. Hada, 
 M. Ehara, K. Toyota, R. Fukuda, J. Hasegawa, M. Ishida, T. Nakajima, 
 Y. Honda, O. Kitao, H. Nakai, T. Vreven, J. A. Montgomery, Jr., 
 J. E. Peralta, F. Ogliaro, M. Bearpark, J. J. Heyd, E. Brothers, 
 K. N. Kudin, V. N. Staroverov, R. Kobayashi, J. Normand, 
 K. Raghavachari, A. Rendell, J. C. Burant, S. S. Iyengar, J. Tomasi, 
 M. Cossi, N. Rega, J. M. Millam, M. Klene, J. E. Knox, J. B. Cross, 
 V. Bakken, C. Adamo, J. Jaramillo, R. Gomperts, R. E. Stratmann, 
 O. Yazyev, A. J. Austin, R. Cammi, C. Pomelli, J. W. Ochterski, 
 R. L. Martin, K. Morokuma, V. G. Zakrzewski, G. A. Voth, 
 P. Salvador, J. J. Dannenberg, S. Dapprich, A. D. Daniels, 
 O. Farkas, J. B. Foresman, J. V. Ortiz, J. Cioslowski, 
 and D. J. Fox, Gaussian, Inc., Wallingford CT, 2009.
 
 ******************************************
 Gaussian 09:  IA32W-G09RevA.02 11-Jun-2009
                23-Oct-2020 
 ******************************************
 --------------------
 # hf/6-31+g opt freq
 --------------------
 1/18=20,19=15,38=1/1,3;
 2/9=110,12=2,17=6,18=5,40=1/2;
 3/5=1,6=6,7=10,11=9,16=1,25=1,30=1,71=1/1,2,3;
 4//1;
 5/5=2,38=5/2;
 6/7=2,8=2,9=2,10=2,28=1/1;
 7//1,2,3,16;
 1/18=20,19=15/3(2);
 2/9=110/2;
 99//99;
 2/9=110/2;
 3/5=1,6=6,7=10,11=9,16=1,25=1,30=1,71=1/1,2,3;
 4/5=5,16=3/1;
 5/5=2,38=5/2;
 7//1,2,3,16;
 1/18=20,19=15/3(-5);
 2/9=110/2;
 6/7=2,8=2,9=2,10=2,19=2,28=1/1;
 99/9=1/99;
 -----
 water
 -----
 Symbolic Z-matrix:
 Charge =  0 Multiplicity = 1
 O
 H                    1    B1
 H                    1    B2       2    A1
       Variables:
  B1                    0.96                     
  B2                    0.96                     
  A1                  109.5                      
 

 GradGradGradGradGradGradGradGradGradGradGradGradGradGradGradGradGradGrad
 Berny optimization.
 Initialization pass.
                           ----------------------------
                           !    Initial Parameters    !
                           ! (Angstroms and Degrees)  !
 --------------------------                            --------------------------
 ! Name  Definition              Value          Derivative Info.                !
 --------------------------------------------------------------------------------
 ! R1    R(1,2)                  0.96           estimate D2E/DX2                !
 ! R2    R(1,3)                  0.96           estimate D2E/DX2                !
 ! A1    A(2,1,3)              109.5            estimate D2E/DX2                !
 --------------------------------------------------------------------------------
 Trust Radius=3.00D-01 FncErr=1.00D-07 GrdErr=1.00D-07
 Number of steps in this run=  20 maximum allowed number of steps= 100.
 GradGradGradGradGradGradGradGradGradGradGradGradGradGradGradGradGradGrad

                          Input orientation:                          
 ---------------------------------------------------------------------
 Center     Atomic      Atomic             Coordinates (Angstroms)
 Number     Number       Type             X           Y           Z
 ---------------------------------------------------------------------
      1          8           0        0.000000    0.000000    0.000000
      2          1           0        0.000000    0.000000    0.960000
      3          1           0        0.904936    0.000000   -0.320455
 ---------------------------------------------------------------------
                    Distance matrix (angstroms):
                    1          2          3
     1  O    0.000000
     2  H    0.960000   0.000000
     3  H    0.960000   1.567952   0.000000
 Stoichiometry    H2O
 Framework group  C2V[C2(O),SGV(H2)]
 Deg. of freedom     2
 Full point group                 C2V     NOp   4
 Largest Abelian subgroup         C2V     NOp   4
 Largest concise Abelian subgroup C2      NOp   2
                         Standard orientation:                         
 ---------------------------------------------------------------------
 Center     Atomic      Atomic             Coordinates (Angstroms)
 Number     Number       Type             X           Y           Z
 ---------------------------------------------------------------------
      1          8           0        0.000000    0.000000    0.110812
      2          1           0        0.000000    0.783976   -0.443248
      3          1           0        0.000000   -0.783976   -0.443248
 ---------------------------------------------------------------------
 Rotational constants (GHZ):    919.6759594    407.9403273    282.5913750
 Standard basis: 6-31+G (6D, 7F)
 There are     9 symmetry adapted basis functions of A1  symmetry.
 There are     0 symmetry adapted basis functions of A2  symmetry.
 There are     3 symmetry adapted basis functions of B1  symmetry.
 There are     5 symmetry adapted basis functions of B2  symmetry.
 Integral buffers will be    262144 words long.
 Raffenetti 1 integral format.
 Two-electron integral symmetry is turned on.
    17 basis functions,    34 primitive gaussians,    17 cartesian basis functions
     5 alpha electrons        5 beta electrons
       nuclear repulsion energy         9.1571159853 Hartrees.
 NAtoms=    3 NActive=    3 NUniq=    2 SFac= 1.69D+00 NAtFMM=   80 NAOKFM=F Big=F
 One-electron integrals computed using PRISM.
 NBasis=    17 RedAO= T  NBF=     9     0     3     5
 NBsUse=    17 1.00D-06 NBFU=     9     0     3     5
 Harris functional with IExCor=  205 diagonalized for initial guess.
 ExpMin= 8.45D-02 ExpMax= 5.48D+03 ExpMxC= 8.25D+02 IAcc=2 IRadAn=         0 AccDes= 0.00D+00
 HarFok:  IExCor=  205 AccDes= 0.00D+00 IRadAn=         0 IDoV= 1
 ScaDFX=  1.000000  1.000000  1.000000  1.000000
 FoFCou: FMM=F IPFlag=           0 FMFlag=      100000 FMFlg1=           0
         NFxFlg=           0 DoJE=T BraDBF=F KetDBF=T FulRan=T
         Omega=  0.000000  0.000000  1.000000  0.000000  0.000000 ICntrl=     500 IOpCl=  0
         NMat0=    1 NMatS0=    1 NMatT0=    0 NMatD0=    1 NMtDS0=    0 NMtDT0=    0
         I1Cent=           4 NGrid=           0.
 Petite list used in FoFCou.
 Initial guess orbital symmetries:
       Occupied  (A1) (A1) (B2) (A1) (B1)
       Virtual   (A1) (B2) (A1) (B1) (B2) (A1) (B2) (A1) (B1) (B2)
                 (A1) (A1)
 The electronic state of the initial guess is 1-A1.
 Requested convergence on RMS density matrix=1.00D-08 within 128 cycles.
 Requested convergence on MAX density matrix=1.00D-06.
 Requested convergence on             energy=1.00D-06.
 No special actions if energy rises.
 Keep R1 ints in memory in canonical form, NReq=831531.
 SCF Done:  E(RHF) =  -75.9926455597     A.U. after   10 cycles
             Convg  =    0.6667D-08             -V/T =  2.0008

 **********************************************************************

            Population analysis using the SCF density.

 **********************************************************************

 Orbital symmetries:
       Occupied  (A1) (A1) (B2) (A1) (B1)
       Virtual   (A1) (B2) (B1) (A1) (B2) (A1) (B2) (A1) (B1) (B2)
                 (A1) (A1)
 The electronic state is 1-A1.
 Alpha  occ. eigenvalues --  -20.57812  -1.36598  -0.73372  -0.56556  -0.51153
 Alpha virt. eigenvalues --    0.14327   0.21999   0.25198   0.25971   0.35437
 Alpha virt. eigenvalues --    0.37010   1.30532   1.35950   1.40264   1.41592
 Alpha virt. eigenvalues --    1.44273   1.74810
          Condensed to atoms (all electrons):
              1          2          3
     1  O    8.435005   0.237871   0.237871
     2  H    0.237871   0.336161  -0.029406
     3  H    0.237871  -0.029406   0.336161
 Mulliken atomic charges:
              1
     1  O   -0.910747
     2  H    0.455374
     3  H    0.455374
 Sum of Mulliken atomic charges =   0.00000
 Mulliken charges with hydrogens summed into heavy atoms:
              1
     1  O    0.000000
 Sum of Mulliken charges with hydrogens summed into heavy atoms =   0.00000
 Electronic spatial extent (au):  <R**2>=             19.7796
 Charge=              0.0000 electrons
 Dipole moment (field-independent basis, Debye):
    X=              0.0000    Y=              0.0000    Z=             -2.6520  Tot=              2.6520
 Quadrupole moment (field-independent basis, Debye-Ang):
   XX=             -7.6715   YY=             -4.0557   ZZ=             -6.6136
   XY=              0.0000   XZ=              0.0000   YZ=              0.0000
 Traceless Quadrupole moment (field-independent basis, Debye-Ang):
   XX=             -1.5579   YY=              2.0579   ZZ=             -0.5000
   XY=              0.0000   XZ=              0.0000   YZ=              0.0000
 Octapole moment (field-independent basis, Debye-Ang**2):
  XXX=              0.0000  YYY=              0.0000  ZZZ=             -1.8032  XYY=              0.0000
  XXY=              0.0000  XXZ=             -0.5347  XZZ=              0.0000  YZZ=              0.0000
  YYZ=             -1.4593  XYZ=              0.0000
 Hexadecapole moment (field-independent basis, Debye-Ang**3):
 XXXX=             -6.7598 YYYY=             -5.6561 ZZZZ=             -7.3767 XXXY=              0.0000
 XXXZ=              0.0000 YYYX=              0.0000 YYYZ=              0.0000 ZZZX=              0.0000
 ZZZY=              0.0000 XXYY=             -2.3577 XXZZ=             -2.3953 YYZZ=             -1.9151
 XXYZ=              0.0000 YYXZ=              0.0000 ZZXY=              0.0000
 N-N= 9.157115985290D+00 E-N=-1.987189678263D+02  KE= 7.592927121720D+01
 Symmetry A1   KE= 6.792384395156D+01
 Symmetry A2   KE= 0.000000000000D+00
 Symmetry B1   KE= 4.481318737692D+00
 Symmetry B2   KE= 3.524108527953D+00
 Calling FoFJK, ICntrl=      2127 FMM=F ISym2X=1 I1Cent= 0 IOpClX= 0 NMat=1 NMatS=1 NMatT=0.
 ***** Axes restored to original set *****
 -------------------------------------------------------------------
 Center     Atomic                   Forces (Hartrees/Bohr)
 Number     Number              X              Y              Z
 -------------------------------------------------------------------
      1        8           0.014806069    0.000000000    0.010463895
      2        1          -0.004519616    0.000000000   -0.009311890
      3        1          -0.010286453    0.000000000   -0.001152005
 -------------------------------------------------------------------
 Cartesian Forces:  Max     0.014806069 RMS     0.007767376

 GradGradGradGradGradGradGradGradGradGradGradGradGradGradGradGradGradGrad
 Berny optimization.
 Internal  Forces:  Max     0.009311890 RMS     0.008956367
 Search for a local minimum.
 Step number   1 out of a maximum of   20
 All quantities printed in internal units (Hartrees-Bohrs-Radians)
 Mixed Optimization -- RFO/linear search
 Second derivative matrix not updated -- first step.
 The second derivative matrix:
                          R1        R2        A1
           R1           0.55473
           R2           0.00000   0.55473
           A1           0.00000   0.00000   0.16000
     Eigenvalues ---    0.16000   0.55473   0.55473
 RFO step:  Lambda=-7.30463322D-04 EMin= 1.60000000D-01
 Linear search not attempted -- first point.
 Iteration  1 RMS(Cart)=  0.02473318 RMS(Int)=  0.00055240
 Iteration  2 RMS(Cart)=  0.00057865 RMS(Int)=  0.00000008
 Iteration  3 RMS(Cart)=  0.00000006 RMS(Int)=  0.00000000
 ClnCor:  largest displacement from symmetrization is 1.13D-14 for atom     3.
 Variable       Old X    -DE/DX   Delta X   Delta X   Delta X     New X
                                 (Linear)    (Quad)   (Total)
    R1        1.81414  -0.00931   0.00000  -0.01676  -0.01676   1.79737
    R2        1.81414  -0.00931   0.00000  -0.01676  -0.01676   1.79737
    A1        1.91114   0.00820   0.00000   0.05101   0.05101   1.96215
         Item               Value     Threshold  Converged?
 Maximum Force            0.009312     0.000450     NO 
 RMS     Force            0.008956     0.000300     NO 
 Maximum Displacement     0.025831     0.001800     NO 
 RMS     Displacement     0.024514     0.001200     NO 
 Predicted change in Energy=-3.663911D-04
 GradGradGradGradGradGradGradGradGradGradGradGradGradGradGradGradGradGrad

                          Input orientation:                          
 ---------------------------------------------------------------------
 Center     Atomic      Atomic             Coordinates (Angstroms)
 Number     Number       Type             X           Y           Z
 ---------------------------------------------------------------------
      1          8           0        0.013669    0.000000    0.009661
      2          1           0       -0.010588    0.000000    0.960480
      3          1           0        0.901854    0.000000   -0.330595
 ---------------------------------------------------------------------
                    Distance matrix (angstroms):
                    1          2          3
     1  O    0.000000
     2  H    0.951129   0.000000
     3  H    0.951129   1.580957   0.000000
 Stoichiometry    H2O
 Framework group  C2V[C2(O),SGV(H2)]
 Deg. of freedom     2
 Full point group                 C2V     NOp   4
 Largest Abelian subgroup         C2V     NOp   4
 Largest concise Abelian subgroup C2      NOp   2
                         Standard orientation:                         
 ---------------------------------------------------------------------
 Center     Atomic      Atomic             Coordinates (Angstroms)
 Number     Number       Type             X           Y           Z
 ---------------------------------------------------------------------
      1          8           0        0.000000    0.000000    0.105790
      2          1           0        0.000000    0.790478   -0.423161
      3          1           0        0.000000   -0.790478   -0.423161
 ---------------------------------------------------------------------
 Rotational constants (GHZ):   1009.0565666    401.2564409    287.0926131
 Standard basis: 6-31+G (6D, 7F)
 There are     9 symmetry adapted basis functions of A1  symmetry.
 There are     0 symmetry adapted basis functions of A2  symmetry.
 There are     3 symmetry adapted basis functions of B1  symmetry.
 There are     5 symmetry adapted basis functions of B2  symmetry.
 Integral buffers will be    262144 words long.
 Raffenetti 1 integral format.
 Two-electron integral symmetry is turned on.
    17 basis functions,    34 primitive gaussians,    17 cartesian basis functions
     5 alpha electrons        5 beta electrons
       nuclear repulsion energy         9.2366005724 Hartrees.
 NAtoms=    3 NActive=    3 NUniq=    2 SFac= 1.69D+00 NAtFMM=   80 NAOKFM=F Big=F
 One-electron integrals computed using PRISM.
 NBasis=    17 RedAO= T  NBF=     9     0     3     5
 NBsUse=    17 1.00D-06 NBFU=     9     0     3     5
 Initial guess read from the read-write file.
 B after Tr=     0.000000    0.000000    0.000000
         Rot=    1.000000    0.000000    0.000000    0.000000 Ang=   0.00 deg.
 Initial guess orbital symmetries:
       Occupied  (A1) (A1) (B2) (A1) (B1)
       Virtual   (A1) (B2) (B1) (A1) (B2) (A1) (B2) (A1) (B1) (B2)
                 (A1) (A1)
 Harris functional with IExCor=  205 diagonalized for initial guess.
 ExpMin= 8.45D-02 ExpMax= 5.48D+03 ExpMxC= 8.25D+02 IAcc=2 IRadAn=         0 AccDes= 0.00D+00
 HarFok:  IExCor=  205 AccDes= 0.00D+00 IRadAn=         0 IDoV= 1
 ScaDFX=  1.000000  1.000000  1.000000  1.000000
 FoFCou: FMM=F IPFlag=           0 FMFlag=      100000 FMFlg1=           0
         NFxFlg=           0 DoJE=T BraDBF=F KetDBF=T FulRan=T
         Omega=  0.000000  0.000000  1.000000  0.000000  0.000000 ICntrl=     500 IOpCl=  0
         NMat0=    1 NMatS0=    1 NMatT0=    0 NMatD0=    1 NMtDS0=    0 NMtDT0=    0
         I1Cent=           4 NGrid=           0.
 Petite list used in FoFCou.
 Requested convergence on RMS density matrix=1.00D-08 within 128 cycles.
 Requested convergence on MAX density matrix=1.00D-06.
 Requested convergence on             energy=1.00D-06.
 No special actions if energy rises.
 Keep R1 ints in memory in canonical form, NReq=831531.
 SCF Done:  E(RHF) =  -75.9930522259     A.U. after    9 cycles
             Convg  =    0.2659D-08             -V/T =  2.0004
 Calling FoFJK, ICntrl=      2127 FMM=F ISym2X=1 I1Cent= 0 IOpClX= 0 NMat=1 NMatS=1 NMatT=0.
 ***** Axes restored to original set *****
 -------------------------------------------------------------------
 Center     Atomic                   Forces (Hartrees/Bohr)
 Number     Number              X              Y              Z
 -------------------------------------------------------------------
      1        8           0.001933159    0.000000000    0.001366222
      2        1          -0.000241530    0.000000000   -0.001709032
      3        1          -0.001691629    0.000000000    0.000342810
 -------------------------------------------------------------------
 Cartesian Forces:  Max     0.001933159 RMS     0.001133428

 GradGradGradGradGradGradGradGradGradGradGradGradGradGradGradGradGradGrad
 Berny optimization.
 Using GEDIIS/GDIIS optimizer.
 Internal  Forces:  Max     0.001702316 RMS     0.001421060
 Search for a local minimum.
 Step number   2 out of a maximum of   20
 All quantities printed in internal units (Hartrees-Bohrs-Radians)
 Mixed Optimization -- RFO/linear search
 Update second derivatives using D2CorX and points    1    2
 DE= -4.07D-04 DEPred=-3.66D-04 R= 1.11D+00
 SS=  1.41D+00  RLast= 5.63D-02 DXNew= 5.0454D-01 1.6876D-01
 Trust test= 1.11D+00 RLast= 5.63D-02 DXMaxT set to 3.00D-01
 The second derivative matrix:
                          R1        R2        A1
           R1           0.52543
           R2          -0.02931   0.52543
           A1           0.01387   0.01387   0.15980
 Use linear search instead of GDIIS.
     Eigenvalues ---    0.15866   0.49726   0.55473
 RFO step:  Lambda=-3.29656217D-06 EMin= 1.58662568D-01
 Quartic linear search produced a step of  0.12879.
 Iteration  1 RMS(Cart)=  0.00242713 RMS(Int)=  0.00000511
 Iteration  2 RMS(Cart)=  0.00000564 RMS(Int)=  0.00000000
 Iteration  3 RMS(Cart)=  0.00000000 RMS(Int)=  0.00000000
 ClnCor:  largest displacement from symmetrization is 8.75D-15 for atom     3.
 Variable       Old X    -DE/DX   Delta X   Delta X   Delta X     New X
                                 (Linear)    (Quad)   (Total)
    R1        1.79737  -0.00170  -0.00216  -0.00138  -0.00354   1.79383
    R2        1.79737  -0.00170  -0.00216  -0.00138  -0.00354   1.79383
    A1        1.96215   0.00051   0.00657  -0.00273   0.00384   1.96598
         Item               Value     Threshold  Converged?
 Maximum Force            0.001702     0.000450     NO 
 RMS     Force            0.001421     0.000300     NO 
 Maximum Displacement     0.002630     0.001800     NO 
 RMS     Displacement     0.002428     0.001200     NO 
 Predicted change in Energy=-7.001393D-06
 GradGradGradGradGradGradGradGradGradGradGradGradGradGradGradGradGradGrad

                          Input orientation:                          
 ---------------------------------------------------------------------
 Center     Atomic      Atomic             Coordinates (Angstroms)
 Number     Number       Type             X           Y           Z
 ---------------------------------------------------------------------
      1          8           0        0.015061    0.000000    0.010644
      2          1           0       -0.010968    0.000000    0.959542
      3          1           0        0.900843    0.000000   -0.330641
 ---------------------------------------------------------------------
                    Distance matrix (angstroms):
                    1          2          3
     1  O    0.000000
     2  H    0.949255   0.000000
     3  H    0.949255   1.579865   0.000000
 Stoichiometry    H2O
 Framework group  C2V[C2(O),SGV(H2)]
 Deg. of freedom     2
 Full point group                 C2V     NOp   4
 Largest Abelian subgroup         C2V     NOp   4
 Largest concise Abelian subgroup C2      NOp   2
                         Standard orientation:                         
 ---------------------------------------------------------------------
 Center     Atomic      Atomic             Coordinates (Angstroms)
 Number     Number       Type             X           Y           Z
 ---------------------------------------------------------------------
      1          8           0        0.000000    0.000000    0.105279
      2          1           0        0.000000    0.789933   -0.421117
      3          1           0        0.000000   -0.789933   -0.421117
 ---------------------------------------------------------------------
 Rotational constants (GHZ):   1018.8790765    401.8112285    288.1676971
 Standard basis: 6-31+G (6D, 7F)
 There are     9 symmetry adapted basis functions of A1  symmetry.
 There are     0 symmetry adapted basis functions of A2  symmetry.
 There are     3 symmetry adapted basis functions of B1  symmetry.
 There are     5 symmetry adapted basis functions of B2  symmetry.
 Integral buffers will be    262144 words long.
 Raffenetti 1 integral format.
 Two-electron integral symmetry is turned on.
    17 basis functions,    34 primitive gaussians,    17 cartesian basis functions
     5 alpha electrons        5 beta electrons
       nuclear repulsion energy         9.2543996012 Hartrees.
 NAtoms=    3 NActive=    3 NUniq=    2 SFac= 1.69D+00 NAtFMM=   80 NAOKFM=F Big=F
 One-electron integrals computed using PRISM.
 NBasis=    17 RedAO= T  NBF=     9     0     3     5
 NBsUse=    17 1.00D-06 NBFU=     9     0     3     5
 Initial guess read from the read-write file.
 B after Tr=     0.000000    0.000000    0.000000
         Rot=    1.000000    0.000000    0.000000    0.000000 Ang=   0.00 deg.
 Initial guess orbital symmetries:
       Occupied  (A1) (A1) (B2) (A1) (B1)
       Virtual   (A1) (B2) (B1) (A1) (B2) (A1) (B2) (A1) (B1) (B2)
                 (A1) (A1)
 Requested convergence on RMS density matrix=1.00D-08 within 128 cycles.
 Requested convergence on MAX density matrix=1.00D-06.
 Requested convergence on             energy=1.00D-06.
 No special actions if energy rises.
 Keep R1 ints in memory in canonical form, NReq=831531.
 SCF Done:  E(RHF) =  -75.9930586655     A.U. after    8 cycles
             Convg  =    0.3729D-08             -V/T =  2.0003
 Calling FoFJK, ICntrl=      2127 FMM=F ISym2X=1 I1Cent= 0 IOpClX= 0 NMat=1 NMatS=1 NMatT=0.
 ***** Axes restored to original set *****
 -------------------------------------------------------------------
 Center     Atomic                   Forces (Hartrees/Bohr)
 Number     Number              X              Y              Z
 -------------------------------------------------------------------
      1        8          -0.000119688    0.000000000   -0.000084587
      2        1          -0.000068487    0.000000000    0.000223878
      3        1           0.000188175    0.000000000   -0.000139291
 -------------------------------------------------------------------
 Cartesian Forces:  Max     0.000223878 RMS     0.000120694

 GradGradGradGradGradGradGradGradGradGradGradGradGradGradGradGradGradGrad
 Berny optimization.
 Using GEDIIS/GDIIS optimizer.
 Internal  Forces:  Max     0.000225672 RMS     0.000195238
 Search for a local minimum.
 Step number   3 out of a maximum of   20
 All quantities printed in internal units (Hartrees-Bohrs-Radians)
 Mixed Optimization -- En-DIIS/RFO-DIIS
 Update second derivatives using D2CorX and points    1    2    3
 DE= -6.44D-06 DEPred=-7.00D-06 R= 9.20D-01
 SS=  1.41D+00  RLast= 6.31D-03 DXNew= 5.0454D-01 1.8921D-02
 Trust test= 9.20D-01 RLast= 6.31D-03 DXMaxT set to 3.00D-01
 The second derivative matrix:
                          R1        R2        A1
           R1           0.56295
           R2           0.00822   0.56295
           A1           0.02451   0.02451   0.14966
 Use linear search instead of GDIIS.
     Eigenvalues ---    0.14683   0.55473   0.57401
 RFO step:  Lambda=-1.47164582D-07 EMin= 1.46831500D-01
 Quartic linear search produced a step of -0.07655.
 Iteration  1 RMS(Cart)=  0.00052106 RMS(Int)=  0.00000010
 Iteration  2 RMS(Cart)=  0.00000007 RMS(Int)=  0.00000000
 ClnCor:  largest displacement from symmetrization is 1.84D-15 for atom     1.
 Variable       Old X    -DE/DX   Delta X   Delta X   Delta X     New X
                                 (Linear)    (Quad)   (Total)
    R1        1.79383   0.00023   0.00027   0.00010   0.00037   1.79420
    R2        1.79383   0.00023   0.00027   0.00010   0.00037   1.79420
    A1        1.96598   0.00011  -0.00029   0.00092   0.00063   1.96661
         Item               Value     Threshold  Converged?
 Maximum Force            0.000226     0.000450     YES
 RMS     Force            0.000195     0.000300     YES
 Maximum Displacement     0.000557     0.001800     YES
 RMS     Displacement     0.000521     0.001200     YES
 Predicted change in Energy=-1.181080D-07
 Optimization completed.
    -- Stationary point found.
                           ----------------------------
                           !   Optimized Parameters   !
                           ! (Angstroms and Degrees)  !
 --------------------------                            --------------------------
 ! Name  Definition              Value          Derivative Info.                !
 --------------------------------------------------------------------------------
 ! R1    R(1,2)                  0.9493         -DE/DX =    0.0002              !
 ! R2    R(1,3)                  0.9493         -DE/DX =    0.0002              !
 ! A1    A(2,1,3)              112.6426         -DE/DX =    0.0001              !
 --------------------------------------------------------------------------------
 GradGradGradGradGradGradGradGradGradGradGradGradGradGradGradGradGradGrad

                          Input orientation:                          
 ---------------------------------------------------------------------
 Center     Atomic      Atomic             Coordinates (Angstroms)
 Number     Number       Type             X           Y           Z
 ---------------------------------------------------------------------
      1          8           0        0.015061    0.000000    0.010644
      2          1           0       -0.010968    0.000000    0.959542
      3          1           0        0.900843    0.000000   -0.330641
 ---------------------------------------------------------------------
                    Distance matrix (angstroms):
                    1          2          3
     1  O    0.000000
     2  H    0.949255   0.000000
     3  H    0.949255   1.579865   0.000000
 Stoichiometry    H2O
 Framework group  C2V[C2(O),SGV(H2)]
 Deg. of freedom     2
 Full point group                 C2V     NOp   4
 Largest Abelian subgroup         C2V     NOp   4
 Largest concise Abelian subgroup C2      NOp   2
                         Standard orientation:                         
 ---------------------------------------------------------------------
 Center     Atomic      Atomic             Coordinates (Angstroms)
 Number     Number       Type             X           Y           Z
 ---------------------------------------------------------------------
      1          8           0        0.000000    0.000000    0.105279
      2          1           0        0.000000    0.789933   -0.421117
      3          1           0        0.000000   -0.789933   -0.421117
 ---------------------------------------------------------------------
 Rotational constants (GHZ):   1018.8790765    401.8112285    288.1676971

 **********************************************************************

            Population analysis using the SCF density.

 **********************************************************************

 Orbital symmetries:
       Occupied  (A1) (A1) (B2) (A1) (B1)
       Virtual   (A1) (B2) (B1) (A1) (B2) (A1) (B2) (A1) (B1) (B2)
                 (A1) (A1)
 The electronic state is 1-A1.
 Alpha  occ. eigenvalues --  -20.57414  -1.36860  -0.74546  -0.56153  -0.51104
 Alpha virt. eigenvalues --    0.14510   0.21789   0.25201   0.25953   0.36374
 Alpha virt. eigenvalues --    0.36829   1.33390   1.36523   1.40333   1.41442
 Alpha virt. eigenvalues --    1.42845   1.73859
          Condensed to atoms (all electrons):
              1          2          3
     1  O    8.436373   0.242397   0.242397
     2  H    0.242397   0.325411  -0.028392
     3  H    0.242397  -0.028392   0.325411
 Mulliken atomic charges:
              1
     1  O   -0.921167
     2  H    0.460584
     3  H    0.460584
 Sum of Mulliken atomic charges =   0.00000
 Mulliken charges with hydrogens summed into heavy atoms:
              1
     1  O    0.000000
 Sum of Mulliken charges with hydrogens summed into heavy atoms =   0.00000
 Electronic spatial extent (au):  <R**2>=             19.6336
 Charge=              0.0000 electrons
 Dipole moment (field-independent basis, Debye):
    X=              0.0000    Y=              0.0000    Z=             -2.5829  Tot=              2.5829
 Quadrupole moment (field-independent basis, Debye-Ang):
   XX=             -7.6546   YY=             -3.9376   ZZ=             -6.6919
   XY=              0.0000   XZ=              0.0000   YZ=              0.0000
 Traceless Quadrupole moment (field-independent basis, Debye-Ang):
   XX=             -1.5599   YY=              2.1571   ZZ=             -0.5972
   XY=              0.0000   XZ=              0.0000   YZ=              0.0000
 Octapole moment (field-independent basis, Debye-Ang**2):
  XXX=              0.0000  YYY=              0.0000  ZZZ=             -1.7431  XYY=              0.0000
  XXY=              0.0000  XXZ=             -0.5246  XZZ=              0.0000  YZZ=              0.0000
  YYZ=             -1.4327  XYZ=              0.0000
 Hexadecapole moment (field-independent basis, Debye-Ang**3):
 XXXX=             -6.7504 YYYY=             -5.4703 ZZZZ=             -7.3047 XXXY=              0.0000
 XXXZ=              0.0000 YYYX=              0.0000 YYYZ=              0.0000 ZZZX=              0.0000
 ZZZY=              0.0000 XXYY=             -2.3393 XXZZ=             -2.3748 YYZZ=             -1.9223
 XXYZ=              0.0000 YYXZ=              0.0000 ZZXY=              0.0000
 N-N= 9.254399601248D+00 E-N=-1.989400624245D+02  KE= 7.596669196444D+01
 Symmetry A1   KE= 6.794866251928D+01
 Symmetry A2   KE= 0.000000000000D+00
 Symmetry B1   KE= 4.474525229475D+00
 Symmetry B2   KE= 3.543504215683D+00
 B after Tr=     0.171008    0.000000    0.120857
         Rot=   -0.325136    0.627922   -0.627922   -0.325136 Ang= 217.95 deg.
 Final structure in terms of initial Z-matrix:
 O
 H,1,B1
 H,1,B2,2,A1
      Variables:
 B1=0.94925545
 B2=0.94925545
 A1=112.64255395
 1|1|UNPC-DESKTOP-JQUKRI5|FOpt|RHF|6-31+G|H2O1|THILINI THUSHARIKA|23-Oc
 t-2020|0||# hf/6-31+g opt freq||water||0,1|O,0.0150608251,0.,0.0106439
 388|H,-0.010968252,0.,0.9595424609|H,0.900843258,0.,-0.3306409855||Ver
 sion=IA32W-G09RevA.02|State=1-A1|HF=-75.9930587|RMSD=3.729e-009|RMSF=1
 .207e-004|Dipole=0.829871,0.,0.5864948|Quadrupole=0.2380782,-1.1597212
 ,0.921643,0.,-0.9651638,0.|PG=C02V [C2(O1),SGV(H2)]||@


 NO HUMAN INVESTIGATION CAN BECOME REAL SCIENCE
 WITHOUT GOING THROUGH MATHEMATICAL PEOPLE.
 -- LEONARDO DA VINCI, IN "PENSIERI" CA. 1492
 Job cpu time:  0 days  0 hours  0 minutes  4.0 seconds.
 File lengths (MBytes):  RWF=      5 Int=      0 D2E=      0 Chk=      1 Scr=      1
 Normal termination of Gaussian 09 at Fri Oct 23 11:16:05 2020.
 Link1:  Proceeding to internal job step number  2.
 ---------------------------------------------------------------
 #N Geom=AllCheck Guess=TCheck SCRF=Check GenChk RHF/6-31+G Freq
 ---------------------------------------------------------------
 1/10=4,29=7,30=1,38=1,40=1/1,3;
 2/12=2,40=1/2;
 3/5=1,6=6,7=10,11=1,14=-4,16=1,25=1,30=1,70=2,71=2,116=1/1,2,3;
 4/5=101/1;
 5/5=2,98=1/2;
 8/6=4,10=90,11=11/1;
 10/13=10,15=4/2;
 11/6=3,8=1,9=11,15=111,16=1/1,2,10;
 10/6=1/2;
 6/7=2,8=2,9=2,10=2,18=1,28=1/1;
 7/8=1,10=1,25=1/1,2,3,16;
 1/10=4,30=1/3;
 99//99;
 -----
 water
 -----
 Redundant internal coordinates taken from checkpoint file:
 C:\G09W\Scratch\gxx.chk
 Charge =  0 Multiplicity = 1
 O,0,0.0150608251,0.,0.0106439388
 H,0,-0.010968252,0.,0.9595424609
 H,0,0.900843258,0.,-0.3306409855
 Recover connectivity data from disk.

 GradGradGradGradGradGradGradGradGradGradGradGradGradGradGradGradGradGrad
 Berny optimization.
 Initialization pass.
                           ----------------------------
                           !    Initial Parameters    !
                           ! (Angstroms and Degrees)  !
 --------------------------                            --------------------------
 ! Name  Definition              Value          Derivative Info.                !
 --------------------------------------------------------------------------------
 ! R1    R(1,2)                  0.9493         calculate D2E/DX2 analytically  !
 ! R2    R(1,3)                  0.9493         calculate D2E/DX2 analytically  !
 ! A1    A(2,1,3)              112.6426         calculate D2E/DX2 analytically  !
 --------------------------------------------------------------------------------
 Trust Radius=3.00D-01 FncErr=1.00D-07 GrdErr=1.00D-07
 Number of steps in this run=   2 maximum allowed number of steps=   2.
 GradGradGradGradGradGradGradGradGradGradGradGradGradGradGradGradGradGrad

                          Input orientation:                          
 ---------------------------------------------------------------------
 Center     Atomic      Atomic             Coordinates (Angstroms)
 Number     Number       Type             X           Y           Z
 ---------------------------------------------------------------------
      1          8           0        0.015061    0.000000    0.010644
      2          1           0       -0.010968    0.000000    0.959542
      3          1           0        0.900843    0.000000   -0.330641
 ---------------------------------------------------------------------
                    Distance matrix (angstroms):
                    1          2          3
     1  O    0.000000
     2  H    0.949255   0.000000
     3  H    0.949255   1.579865   0.000000
 Stoichiometry    H2O
 Framework group  C2V[C2(O),SGV(H2)]
 Deg. of freedom     2
 Full point group                 C2V     NOp   4
 Largest Abelian subgroup         C2V     NOp   4
 Largest concise Abelian subgroup C2      NOp   2
                         Standard orientation:                         
 ---------------------------------------------------------------------
 Center     Atomic      Atomic             Coordinates (Angstroms)
 Number     Number       Type             X           Y           Z
 ---------------------------------------------------------------------
      1          8           0        0.000000    0.000000    0.105279
      2          1           0        0.000000    0.789933   -0.421117
      3          1           0        0.000000   -0.789933   -0.421117
 ---------------------------------------------------------------------
 Rotational constants (GHZ):   1018.8790765    401.8112285    288.1676971
 Standard basis: 6-31+G (6D, 7F)
 There are     9 symmetry adapted basis functions of A1  symmetry.
 There are     0 symmetry adapted basis functions of A2  symmetry.
 There are     3 symmetry adapted basis functions of B1  symmetry.
 There are     5 symmetry adapted basis functions of B2  symmetry.
 Integral buffers will be    262144 words long.
 Raffenetti 1 integral format.
 Two-electron integral symmetry is turned on.
    17 basis functions,    34 primitive gaussians,    17 cartesian basis functions
     5 alpha electrons        5 beta electrons
       nuclear repulsion energy         9.2543996012 Hartrees.
 NAtoms=    3 NActive=    3 NUniq=    2 SFac= 1.69D+00 NAtFMM=   80 NAOKFM=F Big=F
 One-electron integrals computed using PRISM.
 NBasis=    17 RedAO= T  NBF=     9     0     3     5
 NBsUse=    17 1.00D-06 NBFU=     9     0     3     5
 Initial guess read from the checkpoint file:  C:\G09W\Scratch\gxx.chk
 B after Tr=     0.000000    0.000000    0.000000
         Rot=    1.000000    0.000000    0.000000    0.000000 Ang=   0.00 deg.
 Initial guess orbital symmetries:
       Occupied  (A1) (A1) (B2) (A1) (B1)
       Virtual   (A1) (B2) (B1) (A1) (B2) (A1) (B2) (A1) (B1) (B2)
                 (A1) (A1)
 Requested convergence on RMS density matrix=1.00D-08 within 128 cycles.
 Requested convergence on MAX density matrix=1.00D-06.
 Requested convergence on             energy=1.00D-06.
 No special actions if energy rises.
 Keep R1 ints in memory in canonical form, NReq=831531.
 SCF Done:  E(RHF) =  -75.9930586655     A.U. after    1 cycles
             Convg  =    0.3282D-09             -V/T =  2.0003
 Range of M.O.s used for correlation:     1    17
 NBasis=    17 NAE=     5 NBE=     5 NFC=     0 NFV=     0
 NROrb=     17 NOA=     5 NOB=     5 NVA=    12 NVB=    12
          Differentiating once with respect to electric field.
                with respect to dipole field.
          Electric field/nuclear overlap derivatives assumed to be zero.
          Keep R1 ints in memory in canonical form, NReq=812055.
          There are     3 degrees of freedom in the 1st order CPHF.  IDoFFX=0.
      3 vectors produced by pass  0 Test12= 2.00D-15 3.33D-08 XBig12= 1.28D+00 6.99D-01.
 AX will form     3 AO Fock derivatives at one time.
      3 vectors produced by pass  1 Test12= 2.00D-15 3.33D-08 XBig12= 4.78D-02 1.14D-01.
      3 vectors produced by pass  2 Test12= 2.00D-15 3.33D-08 XBig12= 4.96D-03 3.54D-02.
      3 vectors produced by pass  3 Test12= 2.00D-15 3.33D-08 XBig12= 6.45D-05 3.70D-03.
      3 vectors produced by pass  4 Test12= 2.00D-15 3.33D-08 XBig12= 8.22D-07 4.48D-04.
      3 vectors produced by pass  5 Test12= 2.00D-15 3.33D-08 XBig12= 9.03D-10 1.40D-05.
      3 vectors produced by pass  6 Test12= 2.00D-15 3.33D-08 XBig12= 1.10D-11 1.53D-06.
      1 vectors produced by pass  7 Test12= 2.00D-15 3.33D-08 XBig12= 2.12D-13 2.40D-07.
      1 vectors produced by pass  8 Test12= 2.00D-15 3.33D-08 XBig12= 2.05D-15 2.31D-08.
 Inverted reduced A of dimension    23 with in-core refinement.
 End of Minotr Frequency-dependent properties file   721 does not exist.
 End of Minotr Frequency-dependent properties file   722 does not exist.
 Symmetrizing basis deriv contribution to polar:
 IMax=3 JMax=2 DiffMx= 0.00D+00
 G2DrvN: will do     4 centers at a time, making    1 passes doing MaxLOS=1.
 Calling FoFCou, ICntrl=  3107 FMM=F I1Cent=   0 AccDes= 0.00D+00.
 FoFDir/FoFCou used for L=0 through L=1.
 End of G2Drv Frequency-dependent properties file   721 does not exist.
 End of G2Drv Frequency-dependent properties file   722 does not exist.
          IDoAtm=111
          Differentiating once with respect to electric field.
                with respect to dipole field.
          Differentiating once with respect to nuclear coordinates.
          Keep R1 ints in memory in canonical form, NReq=812090.
          There are     9 degrees of freedom in the 1st order CPHF.  IDoFFX=4.
 Will reuse    3 saved solutions.
      6 vectors produced by pass  0 Test12= 6.67D-16 1.11D-08 XBig12= 3.62D-02 8.95D-02.
 AX will form     6 AO Fock derivatives at one time.
      6 vectors produced by pass  1 Test12= 6.67D-16 1.11D-08 XBig12= 4.57D-03 2.81D-02.
      6 vectors produced by pass  2 Test12= 6.67D-16 1.11D-08 XBig12= 1.78D-04 9.84D-03.
      6 vectors produced by pass  3 Test12= 6.67D-16 1.11D-08 XBig12= 2.05D-07 1.92D-04.
      6 vectors produced by pass  4 Test12= 6.67D-16 1.11D-08 XBig12= 4.31D-09 3.11D-05.
      5 vectors produced by pass  5 Test12= 6.67D-16 1.11D-08 XBig12= 2.97D-11 3.09D-06.
      3 vectors produced by pass  6 Test12= 6.67D-16 1.11D-08 XBig12= 1.23D-13 1.94D-07.
 Inverted reduced A of dimension    38 with in-core refinement.
 Isotropic polarizability for W=    0.000000        5.22 Bohr**3.
 End of Minotr Frequency-dependent properties file   721 does not exist.
 End of Minotr Frequency-dependent properties file   722 does not exist.

 **********************************************************************

            Population analysis using the SCF density.

 **********************************************************************

 Orbital symmetries:
       Occupied  (A1) (A1) (B2) (A1) (B1)
       Virtual   (A1) (B2) (B1) (A1) (B2) (A1) (B2) (A1) (B1) (B2)
                 (A1) (A1)
 The electronic state is 1-A1.
 Alpha  occ. eigenvalues --  -20.57414  -1.36860  -0.74546  -0.56153  -0.51104
 Alpha virt. eigenvalues --    0.14510   0.21789   0.25201   0.25953   0.36374
 Alpha virt. eigenvalues --    0.36829   1.33390   1.36523   1.40333   1.41442
 Alpha virt. eigenvalues --    1.42845   1.73859
          Condensed to atoms (all electrons):
              1          2          3
     1  O    8.436373   0.242397   0.242397
     2  H    0.242397   0.325411  -0.028392
     3  H    0.242397  -0.028392   0.325411
 Mulliken atomic charges:
              1
     1  O   -0.921167
     2  H    0.460584
     3  H    0.460584
 Sum of Mulliken atomic charges =   0.00000
 Mulliken charges with hydrogens summed into heavy atoms:
              1
     1  O    0.000000
 Sum of Mulliken charges with hydrogens summed into heavy atoms =   0.00000
 APT atomic charges:
              1
     1  O   -0.714800
     2  H    0.357400
     3  H    0.357400
 Sum of APT charges=   0.00000
 APT Atomic charges with hydrogens summed into heavy atoms:
              1
     1  O    0.000000
     2  H    0.000000
     3  H    0.000000
 Sum of APT charges=   0.00000
 Electronic spatial extent (au):  <R**2>=             19.6336
 Charge=              0.0000 electrons
 Dipole moment (field-independent basis, Debye):
    X=              0.0000    Y=              0.0000    Z=             -2.5829  Tot=              2.5829
 Quadrupole moment (field-independent basis, Debye-Ang):
   XX=             -7.6546   YY=             -3.9376   ZZ=             -6.6919
   XY=              0.0000   XZ=              0.0000   YZ=              0.0000
 Traceless Quadrupole moment (field-independent basis, Debye-Ang):
   XX=             -1.5599   YY=              2.1571   ZZ=             -0.5972
   XY=              0.0000   XZ=              0.0000   YZ=              0.0000
 Octapole moment (field-independent basis, Debye-Ang**2):
  XXX=              0.0000  YYY=              0.0000  ZZZ=             -1.7431  XYY=              0.0000
  XXY=              0.0000  XXZ=             -0.5246  XZZ=              0.0000  YZZ=              0.0000
  YYZ=             -1.4327  XYZ=              0.0000
 Hexadecapole moment (field-independent basis, Debye-Ang**3):
 XXXX=             -6.7504 YYYY=             -5.4703 ZZZZ=             -7.3047 XXXY=              0.0000
 XXXZ=              0.0000 YYYX=              0.0000 YYYZ=              0.0000 ZZZX=              0.0000
 ZZZY=              0.0000 XXYY=             -2.3393 XXZZ=             -2.3748 YYZZ=             -1.9223
 XXYZ=              0.0000 YYXZ=              0.0000 ZZXY=              0.0000
 N-N= 9.254399601248D+00 E-N=-1.989400624198D+02  KE= 7.596669196127D+01
 Symmetry A1   KE= 6.794866251500D+01
 Symmetry A2   KE= 0.000000000000D+00
 Symmetry B1   KE= 4.474525237621D+00
 Symmetry B2   KE= 3.543504208643D+00
  Exact polarizability:   3.854   0.000   7.042   0.000   0.000   4.756
 Approx polarizability:   2.507   0.000   5.362   0.000   0.000   3.302
 Calling FoFJK, ICntrl=    100127 FMM=F ISym2X=1 I1Cent= 0 IOpClX= 0 NMat=1 NMatS=1 NMatT=0.
 Full mass-weighted force constant matrix:
 Low frequencies ---  -62.4951  -58.4476  -46.6361   -0.0021   -0.0018   -0.0017
 Low frequencies --- 1705.3190 3990.3028 4147.4298
 Diagonal vibrational polarizability:
        0.0000000       0.1367759       1.3818655
 Diagonal vibrational hyperpolarizability:
        0.0000000       0.0000000      -8.2191198
 Harmonic frequencies (cm**-1), IR intensities (KM/Mole), Raman scattering
 activities (A**4/AMU), depolarization ratios for plane and unpolarized
 incident light, reduced masses (AMU), force constants (mDyne/A),
 and normal coordinates:
                     1                      2                      3
                    A1                     A1                     B2
 Frequencies --  1705.3190              3990.3028              4147.4298
 Red. masses --     1.0916                 1.0370                 1.0898
 Frc consts  --     1.8703                 9.7284                11.0445
 IR Inten    --   148.4760                 4.6699                87.4248
 Raman Activ --     4.6891                87.9389                38.8287
 Depolar (P) --     0.4259                 0.1508                 0.7500
 Depolar (U) --     0.5973                 0.2621                 0.8571
  Atom  AN      X      Y      Z        X      Y      Z        X      Y      Z
     1   8     0.00   0.00   0.07     0.00   0.00   0.04     0.00   0.07   0.00
     2   1     0.00  -0.38  -0.59     0.00   0.61  -0.35     0.00  -0.59   0.39
     3   1     0.00   0.38  -0.59     0.00  -0.61  -0.35     0.00  -0.59  -0.39

 -------------------
 - Thermochemistry -
 -------------------
 Temperature   298.150 Kelvin.  Pressure   1.00000 Atm.
 Atom     1 has atomic number  8 and mass  15.99491
 Atom     2 has atomic number  1 and mass   1.00783
 Atom     3 has atomic number  1 and mass   1.00783
 Molecular mass:    18.01056 amu.
 Principal axes and moments of inertia in atomic units:
                           1         2         3
     Eigenvalues --     1.77130   4.49152   6.26282
           X            0.00000   0.00000   1.00000
           Y            1.00000   0.00000   0.00000
           Z            0.00000   1.00000   0.00000
 This molecule is an asymmetric top.
 Rotational symmetry number  2.
 Rotational temperatures (Kelvin)     48.89843    19.28387    13.82985
 Rotational constants (GHZ):        1018.87908   401.81123   288.16770
 Zero-point vibrational energy      58874.5 (Joules/Mol)
                                   14.07135 (Kcal/Mol)
 Vibrational temperatures:   2453.57  5741.15  5967.22
          (Kelvin)
 
 Zero-point correction=                           0.022424 (Hartree/Particle)
 Thermal correction to Energy=                    0.025259
 Thermal correction to Enthalpy=                  0.026203
 Thermal correction to Gibbs Free Energy=         0.004859
 Sum of electronic and zero-point Energies=            -75.970635
 Sum of electronic and thermal Energies=               -75.967800
 Sum of electronic and thermal Enthalpies=             -75.966856
 Sum of electronic and thermal Free Energies=          -75.988200
 
                     E (Thermal)             CV                S
                      KCal/Mol        Cal/Mol-Kelvin    Cal/Mol-Kelvin
 Total                   15.850              5.998             44.922
 Electronic               0.000              0.000              0.000
 Translational            0.889              2.981             34.608
 Rotational               0.889              2.981             10.309
 Vibrational             14.073              0.036              0.005
                       Q            Log10(Q)             Ln(Q)
 Total Bot       0.582168D-02         -2.234952         -5.146167
 Total V=0       0.120062D+09          8.079406         18.603520
 Vib (Bot)       0.485018D-10        -10.314242        -23.749420
 Vib (V=0)       0.100027D+01          0.000116          0.000267
 Electronic      0.100000D+01          0.000000          0.000000
 Translational   0.300432D+07          6.477746         14.915562
 Rotational      0.399525D+02          1.601544          3.687691
 ***** Axes restored to original set *****
 -------------------------------------------------------------------
 Center     Atomic                   Forces (Hartrees/Bohr)
 Number     Number              X              Y              Z
 -------------------------------------------------------------------
      1        8          -0.000119688    0.000000000   -0.000084587
      2        1          -0.000068488    0.000000000    0.000223878
      3        1           0.000188175    0.000000000   -0.000139291
 -------------------------------------------------------------------
 Cartesian Forces:  Max     0.000223878 RMS     0.000120694

 GradGradGradGradGradGradGradGradGradGradGradGradGradGradGradGradGradGrad
 Berny optimization.
 Internal  Forces:  Max     0.000225672 RMS     0.000195239
 Search for a local minimum.
 Step number   1 out of a maximum of    2
 All quantities printed in internal units (Hartrees-Bohrs-Radians)
 Second derivative matrix not updated -- analytic derivatives used.
 The second derivative matrix:
                          R1        R2        A1
           R1           0.59482
           R2          -0.00857   0.59482
           A1           0.03491   0.03491   0.16853
     Eigenvalues ---    0.16278   0.59201   0.60339
 Angle between quadratic step and forces=  26.58 degrees.
 Linear search not attempted -- first point.
 Iteration  1 RMS(Cart)=  0.00045920 RMS(Int)=  0.00000008
 Iteration  2 RMS(Cart)=  0.00000005 RMS(Int)=  0.00000000
 ClnCor:  largest displacement from symmetrization is 2.57D-15 for atom     1.
 Variable       Old X    -DE/DX   Delta X   Delta X   Delta X     New X
                                 (Linear)    (Quad)   (Total)
    R1        1.79383   0.00023   0.00000   0.00035   0.00035   1.79419
    R2        1.79383   0.00023   0.00000   0.00035   0.00035   1.79419
    A1        1.96598   0.00011   0.00000   0.00052   0.00052   1.96650
         Item               Value     Threshold  Converged?
 Maximum Force            0.000226     0.000450     YES
 RMS     Force            0.000195     0.000300     YES
 Maximum Displacement     0.000487     0.001800     YES
 RMS     Displacement     0.000459     0.001200     YES
 Predicted change in Energy=-1.088070D-07
 Optimization completed.
    -- Stationary point found.
                           ----------------------------
                           !   Optimized Parameters   !
                           ! (Angstroms and Degrees)  !
 --------------------------                            --------------------------
 ! Name  Definition              Value          Derivative Info.                !
 --------------------------------------------------------------------------------
 ! R1    R(1,2)                  0.9493         -DE/DX =    0.0002              !
 ! R2    R(1,3)                  0.9493         -DE/DX =    0.0002              !
 ! A1    A(2,1,3)              112.6426         -DE/DX =    0.0001              !
 --------------------------------------------------------------------------------
 GradGradGradGradGradGradGradGradGradGradGradGradGradGradGradGradGradGrad

 1|1|UNPC-DESKTOP-JQUKRI5|Freq|RHF|6-31+G|H2O1|THILINI THUSHARIKA|23-Oc
 t-2020|0||#N Geom=AllCheck Guess=TCheck SCRF=Check GenChk RHF/6-31+G F
 req||water||0,1|O,0.0150608251,0.,0.0106439388|H,-0.010968252,0.,0.959
 5424609|H,0.900843258,0.,-0.3306409855||Version=IA32W-G09RevA.02|State
 =1-A1|HF=-75.9930587|RMSD=3.282e-010|RMSF=1.207e-004|ZeroPoint=0.02242
 41|Thermal=0.0252588|Dipole=0.829871,0.,0.5864948|DipoleDeriv=-0.53911
 16,0.,0.062984,0.,-1.0215693,0.,0.062984,0.,-0.5837192,0.3791515,0.,-0
 .0850936,0.,0.5107846,0.,-0.0555102,0.,0.1822638,0.15996,0.,0.0221096,
 0.,0.5107846,0.,-0.0074738,0.,0.4014553|Polar=5.5170496,0.,3.8535744,-
 1.0774203,0.,6.2801187|PolarDeriv=-6.9139227,0.,-0.3235513,0.8919712,0
 .,-1.6043269,0.,-0.7405273,0.,0.,-0.5233529,0.,0.7142601,0.,-0.2286635
 ,-1.3528715,0.,-6.7343637,0.0045165,0.,0.1293787,1.1912143,0.,0.317925
 3,0.,-0.2460234,0.,0.,1.1337024,0.,0.6369945,0.,0.1601723,-0.2622831,0
 .,7.9433349,6.9094062,0.,0.1941726,-2.0831855,0.,1.2864016,0.,0.986550
 6,0.,0.,-0.6103495,0.,-1.3512546,0.,0.0684911,1.6151546,0.,-1.2089712|
 HyperPolar=16.7817126,0.,1.5852222,0.,-5.5437809,0.,1.1203243,2.245095
 3,0.,18.9905993|PG=C02V [C2(O1),SGV(H2)]|NImag=0||0.56749543,0.,-0.000
 14733,-0.18952486,0.,0.70172397,-0.05480711,0.,-0.02192359,0.05372506,
 0.,0.00007367,0.,0.,-0.00011131,0.04930420,0.,-0.57980259,-0.03433745,
 0.,0.59334362,-0.51268832,0.,0.21144845,0.00108205,0.,-0.01496675,0.51
 160627,0.,0.00007367,0.,0.,0.00003765,0.,0.,-0.00011131,0.14022065,0.,
 -0.12192138,0.05626104,0.,-0.01354103,-0.19648169,0.,0.13546241||0.000
 11969,0.,0.00008459,0.00006849,0.,-0.00022388,-0.00018818,0.,0.0001392
 9|||@


 NO HUMAN INVESTIGATION CAN BECOME REAL SCIENCE
 WITHOUT GOING THROUGH MATHEMATICAL PEOPLE.
 -- LEONARDO DA VINCI, IN "PENSIERI" CA. 1492
 Job cpu time:  0 days  0 hours  0 minutes  2.0 seconds.
 File lengths (MBytes):  RWF=      5 Int=      0 D2E=      0 Chk=      1 Scr=      1
 Normal termination of Gaussian 09 at Fri Oct 23 11:16:07 2020.
